LAMMPS (22 Aug 2018)
Reading data file ...
  orthogonal box = (-10 -10 -10) to (10 10 10)
  1 by 1 by 1 MPI processor grid
  reading atoms ...
  4 atoms
  reading velocities ...
  4 velocities
  scanning bonds ...
  2 = max bonds/atom
  scanning angles ...
  1 = max angles/atom
  reading bonds ...
  2 bonds
  reading angles ...
  1 angles
Finding 1-2 1-3 1-4 neighbors ...
  special bond factors lj:   0          0          0         
  special bond factors coul: 0          0          0         
  2 = max # of 1-2 neighbors
  1 = max # of 1-3 neighbors
  1 = max # of 1-4 neighbors
  2 = max # of special neighbors
Read molecule hard:
  4 atoms with max type 4
  2 bonds with max type 2
  1 angles with max type 1
  0 dihedrals with max type 0
  0 impropers with max type 0
Read molecule weak:
  4 atoms with max type 4
  2 bonds with max type 3
  1 angles with max type 1
  0 dihedrals with max type 0
  0 impropers with max type 0
dynamic group bond_react_MASTER_group defined
dynamic group bond_react_MASTER_group defined
Setting atom values ...
  1 settings made for x
  1 settings made for y
  1 settings made for z
Neighbor list info ...
  update every 1 steps, delay 10 steps, check yes
  max neighbors/atom: 2000, page size: 100000
  master list distance cutoff = 32
  ghost atom cutoff = 32
  binsize = 16, bins = 2 2 2
  2 neighbor lists, perpetual/occasional/extra = 1 1 0
  (1) pair lj/cut, perpetual
      attributes: half, newton on
      pair build: half/bin/newton
      stencil: half/bin/3d/newton
      bin: standard
  (2) fix bond/react, occasional, copy from (1)
      attributes: half, newton on
      pair build: copy
      stencil: none
      bin: none
Setting up Verlet run ...
  Unit style    : real
  Current step  : 0
  Time step     : 0.5
Per MPI rank memory allocation (min/avg/max) = 8.763 | 8.763 | 8.763 Mbytes
Step Temp E_pair E_mol TotEng Press 
       0            0   0.92040472    1666.5926     1667.513    3466.7762 
1.0 1667.51299364805
       1            0   0.92040472    1666.5926     1667.513    3466.7762 
Loop time of 0.000354052 on 1 procs for 1 steps with 4 atoms

Performance: 122.016 ns/day, 0.197 hours/ns, 2824.447 timesteps/s
100.3% CPU use with 1 MPI tasks x no OpenMP threads

MPI task timing breakdown:
Section |  min time  |  avg time  |  max time  |%varavg| %total
---------------------------------------------------------------
Pair    | 1.2875e-05 | 1.2875e-05 | 1.2875e-05 |   0.0 |  3.64
Bond    | 3.0994e-06 | 3.0994e-06 | 3.0994e-06 |   0.0 |  0.88
Neigh   | 3.1948e-05 | 3.1948e-05 | 3.1948e-05 |   0.0 |  9.02
Comm    | 3.0756e-05 | 3.0756e-05 | 3.0756e-05 |   0.0 |  8.69
Output  | 4.8876e-05 | 4.8876e-05 | 4.8876e-05 |   0.0 | 13.80
Modify  | 0.00021935 | 0.00021935 | 0.00021935 |   0.0 | 61.95
Other   |            | 7.153e-06  |            |       |  2.02

Nlocal:    4 ave 4 max 4 min
Histogram: 1 0 0 0 0 0 0 0 0 0
Nghost:    421 ave 421 max 421 min
Histogram: 1 0 0 0 0 0 0 0 0 0
Neighs:    151 ave 151 max 151 min
Histogram: 1 0 0 0 0 0 0 0 0 0

Total # of neighbors = 151
Ave neighs/atom = 37.75
Ave special neighs/atom = 1.5
Neighbor list builds = 1
Dangerous builds = 0
radius, dist_13 = 1.0, 4.01894544251075
Setting atom values ...
  1 settings made for x
  1 settings made for y
  1 settings made for z
Setting up Verlet run ...
  Unit style    : real
  Current step  : 1
  Time step     : 0.5
Per MPI rank memory allocation (min/avg/max) = 9.144 | 9.144 | 9.144 Mbytes
Step Temp E_pair E_mol TotEng Press 
       1            0    232096.01    1666.5926     233762.6    7963058.2 
5.0 233762.601725733
       2            0    232096.01    1666.5926     233762.6    7963058.2 
Loop time of 0.000182152 on 1 procs for 1 steps with 4 atoms

Performance: 237.165 ns/day, 0.101 hours/ns, 5489.927 timesteps/s
100.5% CPU use with 1 MPI tasks x no OpenMP threads

MPI task timing breakdown:
Section |  min time  |  avg time  |  max time  |%varavg| %total
---------------------------------------------------------------
Pair    | 1.2875e-05 | 1.2875e-05 | 1.2875e-05 |   0.0 |  7.07
Bond    | 2.1458e-06 | 2.1458e-06 | 2.1458e-06 |   0.0 |  1.18
Neigh   | 2.718e-05  | 2.718e-05  | 2.718e-05  |   0.0 | 14.92
Comm    | 2.6703e-05 | 2.6703e-05 | 2.6703e-05 |   0.0 | 14.66
Output  | 4.9829e-05 | 4.9829e-05 | 4.9829e-05 |   0.0 | 27.36
Modify  | 6.032e-05  | 6.032e-05  | 6.032e-05  |   0.0 | 33.12
Other   |            | 3.099e-06  |            |       |  1.70

Nlocal:    4 ave 4 max 4 min
Histogram: 1 0 0 0 0 0 0 0 0 0
Nghost:    396 ave 396 max 396 min
Histogram: 1 0 0 0 0 0 0 0 0 0
Neighs:    147 ave 147 max 147 min
Histogram: 1 0 0 0 0 0 0 0 0 0

Total # of neighbors = 147
Ave neighs/atom = 36.75
Ave special neighs/atom = 1.5
Neighbor list builds = 1
Dangerous builds = 0
radius, dist_13 = 5.0, 1.38258266272491
Setting atom values ...
  1 settings made for x
  1 settings made for y
  1 settings made for z
Setting up Verlet run ...
  Unit style    : real
  Current step  : 2
  Time step     : 0.5
Per MPI rank memory allocation (min/avg/max) = 9.144 | 9.144 | 9.144 Mbytes
Step Temp E_pair E_mol TotEng Press 
       2            0 -0.0037246831    1666.5926    1666.5889    3428.3578 
10.0 1666.5888642417
       3            0 -0.0037246831    1666.5926    1666.5889    3428.3578 
Loop time of 0.000155926 on 1 procs for 1 steps with 4 atoms

Performance: 277.055 ns/day, 0.087 hours/ns, 6413.309 timesteps/s
100.7% CPU use with 1 MPI tasks x no OpenMP threads

MPI task timing breakdown:
Section |  min time  |  avg time  |  max time  |%varavg| %total
---------------------------------------------------------------
Pair    | 1.1921e-05 | 1.1921e-05 | 1.1921e-05 |   0.0 |  7.65
Bond    | 9.5367e-07 | 9.5367e-07 | 9.5367e-07 |   0.0 |  0.61
Neigh   | 2.9087e-05 | 2.9087e-05 | 2.9087e-05 |   0.0 | 18.65
Comm    | 2.5272e-05 | 2.5272e-05 | 2.5272e-05 |   0.0 | 16.21
Output  | 4.6968e-05 | 4.6968e-05 | 4.6968e-05 |   0.0 | 30.12
Modify  | 3.7909e-05 | 3.7909e-05 | 3.7909e-05 |   0.0 | 24.31
Other   |            | 3.815e-06  |            |       |  2.45

Nlocal:    4 ave 4 max 4 min
Histogram: 1 0 0 0 0 0 0 0 0 0
Nghost:    376 ave 376 max 376 min
Histogram: 1 0 0 0 0 0 0 0 0 0
Neighs:    144 ave 144 max 144 min
Histogram: 1 0 0 0 0 0 0 0 0 0

Total # of neighbors = 144
Ave neighs/atom = 36
Ave special neighs/atom = 1.5
Neighbor list builds = 1
Dangerous builds = 0
radius, dist_13 = 10.0, 9.65162150056839

Please see the log.cite file for references relevant to this simulation

Total wall time: 0:00:00
