LAMMPS data file via write_data, version 22 Aug 2018, timestep = 0

4 atoms
4 atom types
2 bonds
2 bond types
1 angles
1 angle types

-4.00e+01 4.00e+01 xlo xhi
-4.00e+01 4.00e+01 ylo yhi
-4.00e+01 4.00e+01 zlo zhi

Masses

1 86.8
2 67
3 15
4 29

PairIJ Coeffs # lj/cut/coul/msm

1 1 2.8739 1.28006 3.84018
1 2 1.88514 2.99747 8.9924
1 3 3.36682 2.5589 7.67669
1 4 1.27096 1.03342 3.10027
2 2 1.23656 7.01906 21.0572
2 3 2.20847 5.99207 17.9762
2 4 0.833688 2.41993 7.2598
3 3 3.94428 5.11535 15.346
3 4 1.48895 2.06586 6.19759
4 4 0.562072 0.834311 2.50293

Bond Coeffs # harmonic

1 200 2.68975
2 200 3.04931

Angle Coeffs # harmonic

1 200 144.187

Atoms # full

1 0 1 -1.000000   10.000000  0.000000  0.000000
2 0 2  0.408675    0.930064  0.673140  0.003587
3 0 3  0.317505    3.618873  0.602433  0.010980
4 0 4  0.273820    -1.57953 -0.874660  0.747590

Velocities

1 0.0000000000000000e+00 0.0000000000000000e+00 0.0000000000000000e+00
2 0.0000000000000000e+00 0.0000000000000000e+00 0.0000000000000000e+00
3 0.0000000000000000e+00 0.0000000000000000e+00 0.0000000000000000e+00
4 0.0000000000000000e+00 0.0000000000000000e+00 0.0000000000000000e+00

Bonds

1 1 2 3
2 2 2 4

Angles

1 1 3 2 4

