ITEM: TIMESTEP
0
ITEM: NUMBER OF ENTRIES
2
ITEM: BOX BOUNDS pp pp pp
-40 40
-40 40
-40 40
ITEM: ENTRIES c_1[1] c_1[2] c_1[3] c_1[4] 
2.68975 95.1506 -275.899 0 
3.04094 0.335139 -16.3741 0 
