ITEM: TIMESTEP
0
ITEM: NUMBER OF ENTRIES
2
ITEM: BOX BOUNDS pp pp pp
-40 40
-40 40
-40 40
ITEM: ENTRIES c_1 
1 
2 
