LAMMPS (22 Aug 2018)
Reading data file ...
  orthogonal box = (-40 -40 -40) to (40 40 40)
  1 by 1 by 1 MPI processor grid
  reading atoms ...
  4 atoms
  scanning bonds ...
  2 = max bonds/atom
  scanning angles ...
  1 = max angles/atom
  reading bonds ...
  2 bonds
  reading angles ...
  1 angles
Finding 1-2 1-3 1-4 neighbors ...
  special bond factors lj:   0          0          0         
  special bond factors coul: 0          0          0         
  2 = max # of 1-2 neighbors
  1 = max # of 1-3 neighbors
  1 = max # of 1-4 neighbors
  2 = max # of special neighbors
Read molecule sys1_hard:
  3 atoms with max type 3
  2 bonds with max type 0
  1 angles with max type 0
  0 dihedrals with max type 0
  0 impropers with max type 0
Read molecule sys1_weak:
  3 atoms with max type 3
  2 bonds with max type 0
  1 angles with max type 0
  0 dihedrals with max type 0
  0 impropers with max type 0
Read molecule sys2:
  1 atoms with max type 1
  0 bonds with max type 0
  0 angles with max type 0
  0 dihedrals with max type 0
  0 impropers with max type 0
dynamic group bond_react_MASTER_group defined
dynamic group bond_react_MASTER_group defined
Setting atom values ...
  1 settings made for x
  1 settings made for y
  1 settings made for z
hewre
Neighbor list info ...
  update every 1 steps, delay 0 steps, check yes
  max neighbors/atom: 2000, page size: 100000
  master list distance cutoff = 6
  ghost atom cutoff = 6
  binsize = 3, bins = 27 27 27
  2 neighbor lists, perpetual/occasional/extra = 1 1 0
  (1) pair lj/cut, perpetual
      attributes: half, newton on
      pair build: half/bin/newton
      stencil: half/bin/3d/newton
      bin: standard
  (2) fix bond/react, occasional, copy from (1)
      attributes: half, newton on
      pair build: copy
      stencil: none
      bin: none
Setting up Verlet run ...
  Unit style    : metal
  Current step  : 0
  Time step     : 0.0001
Per MPI rank memory allocation (min/avg/max) = 6.774 | 6.774 | 6.774 Mbytes
Step Temp E_pair E_mol TotEng Press 
       0            0 -1.3085913e-13    1666.5907    1666.5907    1251.7004 
0,3.0,90,0,1666.59066339062
       1            0 -1.3085913e-13    1666.5907    1666.5907    1251.7004 
Loop time of 0.000205994 on 1 procs for 1 steps with 4 atoms

Performance: 41.943 ns/day, 0.572 hours/ns, 4854.519 timesteps/s
50.0% CPU use with 1 MPI tasks x no OpenMP threads

MPI task timing breakdown:
Section |  min time  |  avg time  |  max time  |%varavg| %total
---------------------------------------------------------------
Pair    | 9.5367e-07 | 9.5367e-07 | 9.5367e-07 |   0.0 |  0.46
Bond    | 9.5367e-07 | 9.5367e-07 | 9.5367e-07 |   0.0 |  0.46
Neigh   | 2.8133e-05 | 2.8133e-05 | 2.8133e-05 |   0.0 | 13.66
Comm    | 3.0994e-06 | 3.0994e-06 | 3.0994e-06 |   0.0 |  1.50
Output  | 9.7752e-06 | 9.7752e-06 | 9.7752e-06 |   0.0 |  4.75
Modify  | 0.00015712 | 0.00015712 | 0.00015712 |   0.0 | 76.27
Other   |            | 5.96e-06   |            |       |  2.89

Nlocal:    4 ave 4 max 4 min
Histogram: 1 0 0 0 0 0 0 0 0 0
Nghost:    0 ave 0 max 0 min
Histogram: 1 0 0 0 0 0 0 0 0 0
Neighs:    3 ave 3 max 3 min
Histogram: 1 0 0 0 0 0 0 0 0 0

Total # of neighbors = 3
Ave neighs/atom = 0.75
Ave special neighs/atom = 1.5
Neighbor list builds = 1
Dangerous builds = 0
cacacacacacacacacacacacacacacacacacacacacacacacacacacacacacacacacacacacacacacacacasssssssssssssssssssssssssssssssssssssssss
Setting atom values ...
  1 settings made for x
  1 settings made for y
  1 settings made for z
hewre
Setting up Verlet run ...
  Unit style    : metal
  Current step  : 1
  Time step     : 0.0001
Per MPI rank memory allocation (min/avg/max) = 7.156 | 7.156 | 7.156 Mbytes
Step Temp E_pair E_mol TotEng Press 
       1            0 -3.28923e-14    1666.5907    1666.5907    1251.7004 
0,3.5,90,0,1666.59066339062
       2            0 -3.28923e-14    1666.5907    1666.5907    1251.7004 
Loop time of 9.41753e-05 on 1 procs for 1 steps with 4 atoms

Performance: 91.744 ns/day, 0.262 hours/ns, 10618.491 timesteps/s
99.8% CPU use with 1 MPI tasks x no OpenMP threads

MPI task timing breakdown:
Section |  min time  |  avg time  |  max time  |%varavg| %total
---------------------------------------------------------------
Pair    | 9.5367e-07 | 9.5367e-07 | 9.5367e-07 |   0.0 |  1.01
Bond    | 1.1921e-06 | 1.1921e-06 | 1.1921e-06 |   0.0 |  1.27
Neigh   | 4.7922e-05 | 4.7922e-05 | 4.7922e-05 |   0.0 | 50.89
Comm    | 3.0994e-06 | 3.0994e-06 | 3.0994e-06 |   0.0 |  3.29
Output  | 7.8678e-06 | 7.8678e-06 | 7.8678e-06 |   0.0 |  8.35
Modify  | 2.8849e-05 | 2.8849e-05 | 2.8849e-05 |   0.0 | 30.63
Other   |            | 4.292e-06  |            |       |  4.56

Nlocal:    4 ave 4 max 4 min
Histogram: 1 0 0 0 0 0 0 0 0 0
Nghost:    0 ave 0 max 0 min
Histogram: 1 0 0 0 0 0 0 0 0 0
Neighs:    3 ave 3 max 3 min
Histogram: 1 0 0 0 0 0 0 0 0 0

Total # of neighbors = 3
Ave neighs/atom = 0.75
Ave special neighs/atom = 1.5
Neighbor list builds = 1
Dangerous builds = 0
cacacacacacacacacacacacacacacacacacacacacacacacacacacacacacacacacacacacacacacacacasssssssssssssssssssssssssssssssssssssssss
Setting atom values ...
  1 settings made for x
  1 settings made for y
  1 settings made for z
hewre
Setting up Verlet run ...
  Unit style    : metal
  Current step  : 2
  Time step     : 0.0001
Per MPI rank memory allocation (min/avg/max) = 7.156 | 7.156 | 7.156 Mbytes
Step Temp E_pair E_mol TotEng Press 
       2            0 -9.0208119e-15    1666.5907    1666.5907    1251.7004 
0,4.0,90,0,1666.59066339062
       3            0 -9.0208119e-15    1666.5907    1666.5907    1251.7004 
Loop time of 6.98566e-05 on 1 procs for 1 steps with 4 atoms

Performance: 123.682 ns/day, 0.194 hours/ns, 14315.031 timesteps/s
100.2% CPU use with 1 MPI tasks x no OpenMP threads

MPI task timing breakdown:
Section |  min time  |  avg time  |  max time  |%varavg| %total
---------------------------------------------------------------
Pair    | 0          | 0          | 0          |   0.0 |  0.00
Bond    | 1.1921e-06 | 1.1921e-06 | 1.1921e-06 |   0.0 |  1.71
Neigh   | 2.7895e-05 | 2.7895e-05 | 2.7895e-05 |   0.0 | 39.93
Comm    | 3.0994e-06 | 3.0994e-06 | 3.0994e-06 |   0.0 |  4.44
Output  | 9.0599e-06 | 9.0599e-06 | 9.0599e-06 |   0.0 | 12.97
Modify  | 2.5749e-05 | 2.5749e-05 | 2.5749e-05 |   0.0 | 36.86
Other   |            | 2.861e-06  |            |       |  4.10

Nlocal:    4 ave 4 max 4 min
Histogram: 1 0 0 0 0 0 0 0 0 0
Nghost:    0 ave 0 max 0 min
Histogram: 1 0 0 0 0 0 0 0 0 0
Neighs:    3 ave 3 max 3 min
Histogram: 1 0 0 0 0 0 0 0 0 0

Total # of neighbors = 3
Ave neighs/atom = 0.75
Ave special neighs/atom = 1.5
Neighbor list builds = 1
Dangerous builds = 0
cacacacacacacacacacacacacacacacacacacacacacacacacacacacacacacacacacacacacacacacacasssssssssssssssssssssssssssssssssssssssss
Setting atom values ...
  1 settings made for x
  1 settings made for y
  1 settings made for z
hewre
Setting up Verlet run ...
  Unit style    : metal
  Current step  : 3
  Time step     : 0.0001
Per MPI rank memory allocation (min/avg/max) = 7.156 | 7.156 | 7.156 Mbytes
Step Temp E_pair E_mol TotEng Press 
       3            0 -2.3988032e-15    1666.5907    1666.5907    1251.7004 
0,4.5,90,0,1666.59066339062
       4            0 -2.3988032e-15    1666.5907    1666.5907    1251.7004 
Loop time of 6.8903e-05 on 1 procs for 1 steps with 4 atoms

Performance: 125.394 ns/day, 0.191 hours/ns, 14513.163 timesteps/s
100.1% CPU use with 1 MPI tasks x no OpenMP threads

MPI task timing breakdown:
Section |  min time  |  avg time  |  max time  |%varavg| %total
---------------------------------------------------------------
Pair    | 0          | 0          | 0          |   0.0 |  0.00
Bond    | 1.1921e-06 | 1.1921e-06 | 1.1921e-06 |   0.0 |  1.73
Neigh   | 2.7895e-05 | 2.7895e-05 | 2.7895e-05 |   0.0 | 40.48
Comm    | 3.0994e-06 | 3.0994e-06 | 3.0994e-06 |   0.0 |  4.50
Output  | 9.0599e-06 | 9.0599e-06 | 9.0599e-06 |   0.0 | 13.15
Modify  | 2.3842e-05 | 2.3842e-05 | 2.3842e-05 |   0.0 | 34.60
Other   |            | 3.815e-06  |            |       |  5.54

Nlocal:    4 ave 4 max 4 min
Histogram: 1 0 0 0 0 0 0 0 0 0
Nghost:    0 ave 0 max 0 min
Histogram: 1 0 0 0 0 0 0 0 0 0
Neighs:    3 ave 3 max 3 min
Histogram: 1 0 0 0 0 0 0 0 0 0

Total # of neighbors = 3
Ave neighs/atom = 0.75
Ave special neighs/atom = 1.5
Neighbor list builds = 1
Dangerous builds = 0
cacacacacacacacacacacacacacacacacacacacacacacacacacacacacacacacacacacacacacacacacasssssssssssssssssssssssssssssssssssssssss
Setting atom values ...
  1 settings made for x
  1 settings made for y
  1 settings made for z
hewre
Setting up Verlet run ...
  Unit style    : metal
  Current step  : 4
  Time step     : 0.0001
Per MPI rank memory allocation (min/avg/max) = 7.156 | 7.156 | 7.156 Mbytes
Step Temp E_pair E_mol TotEng Press 
       4            0            0    1666.5907    1666.5907    1251.7004 
0,5.0,90,0,1666.59066339062
       5            0            0    1666.5907    1666.5907    1251.7004 
Loop time of 7.29561e-05 on 1 procs for 1 steps with 4 atoms

Performance: 118.427 ns/day, 0.203 hours/ns, 13706.876 timesteps/s
101.4% CPU use with 1 MPI tasks x no OpenMP threads

MPI task timing breakdown:
Section |  min time  |  avg time  |  max time  |%varavg| %total
---------------------------------------------------------------
Pair    | 0          | 0          | 0          |   0.0 |  0.00
Bond    | 2.1458e-06 | 2.1458e-06 | 2.1458e-06 |   0.0 |  2.94
Neigh   | 2.8849e-05 | 2.8849e-05 | 2.8849e-05 |   0.0 | 39.54
Comm    | 1.1921e-06 | 1.1921e-06 | 1.1921e-06 |   0.0 |  1.63
Output  | 1.0967e-05 | 1.0967e-05 | 1.0967e-05 |   0.0 | 15.03
Modify  | 2.6703e-05 | 2.6703e-05 | 2.6703e-05 |   0.0 | 36.60
Other   |            | 3.099e-06  |            |       |  4.25

Nlocal:    4 ave 4 max 4 min
Histogram: 1 0 0 0 0 0 0 0 0 0
Nghost:    0 ave 0 max 0 min
Histogram: 1 0 0 0 0 0 0 0 0 0
Neighs:    3 ave 3 max 3 min
Histogram: 1 0 0 0 0 0 0 0 0 0

Total # of neighbors = 3
Ave neighs/atom = 0.75
Ave special neighs/atom = 1.5
Neighbor list builds = 1
Dangerous builds = 0
cacacacacacacacacacacacacacacacacacacacacacacacacacacacacacacacacacacacacacacacacasssssssssssssssssssssssssssssssssssssssss
Setting atom values ...
  1 settings made for x
  1 settings made for y
  1 settings made for z
hewre
Setting up Verlet run ...
  Unit style    : metal
  Current step  : 5
  Time step     : 0.0001
Per MPI rank memory allocation (min/avg/max) = 7.156 | 7.156 | 7.156 Mbytes
Step Temp E_pair E_mol TotEng Press 
       5            0            0    1666.5907    1666.5907    1251.7004 
0,5.5,90,0,1666.59066339062
       6            0            0    1666.5907    1666.5907    1251.7004 
Loop time of 7.20024e-05 on 1 procs for 1 steps with 4 atoms

Performance: 119.996 ns/day, 0.200 hours/ns, 13888.424 timesteps/s
101.4% CPU use with 1 MPI tasks x no OpenMP threads

MPI task timing breakdown:
Section |  min time  |  avg time  |  max time  |%varavg| %total
---------------------------------------------------------------
Pair    | 0          | 0          | 0          |   0.0 |  0.00
Bond    | 1.9073e-06 | 1.9073e-06 | 1.9073e-06 |   0.0 |  2.65
Neigh   | 2.8133e-05 | 2.8133e-05 | 2.8133e-05 |   0.0 | 39.07
Comm    | 1.9073e-06 | 1.9073e-06 | 1.9073e-06 |   0.0 |  2.65
Output  | 8.1062e-06 | 8.1062e-06 | 8.1062e-06 |   0.0 | 11.26
Modify  | 2.8133e-05 | 2.8133e-05 | 2.8133e-05 |   0.0 | 39.07
Other   |            | 3.815e-06  |            |       |  5.30

Nlocal:    4 ave 4 max 4 min
Histogram: 1 0 0 0 0 0 0 0 0 0
Nghost:    0 ave 0 max 0 min
Histogram: 1 0 0 0 0 0 0 0 0 0
Neighs:    2 ave 2 max 2 min
Histogram: 1 0 0 0 0 0 0 0 0 0

Total # of neighbors = 2
Ave neighs/atom = 0.5
Ave special neighs/atom = 1.5
Neighbor list builds = 1
Dangerous builds = 0
cacacacacacacacacacacacacacacacacacacacacacacacacacacacacacacacacacacacacacacacacasssssssssssssssssssssssssssssssssssssssss
Setting atom values ...
  1 settings made for x
  1 settings made for y
  1 settings made for z
hewre
Setting up Verlet run ...
  Unit style    : metal
  Current step  : 6
  Time step     : 0.0001
Per MPI rank memory allocation (min/avg/max) = 7.156 | 7.156 | 7.156 Mbytes
Step Temp E_pair E_mol TotEng Press 
       6            0            0    1666.5907    1666.5907    1251.7004 
0,6.0,90,0,1666.59066339062
       7            0            0    1666.5907    1666.5907    1251.7004 
Loop time of 7.70092e-05 on 1 procs for 1 steps with 4 atoms

Performance: 112.194 ns/day, 0.214 hours/ns, 12985.461 timesteps/s
100.0% CPU use with 1 MPI tasks x no OpenMP threads

MPI task timing breakdown:
Section |  min time  |  avg time  |  max time  |%varavg| %total
---------------------------------------------------------------
Pair    | 0          | 0          | 0          |   0.0 |  0.00
Bond    | 9.5367e-07 | 9.5367e-07 | 9.5367e-07 |   0.0 |  1.24
Neigh   | 2.8133e-05 | 2.8133e-05 | 2.8133e-05 |   0.0 | 36.53
Comm    | 1.9073e-06 | 1.9073e-06 | 1.9073e-06 |   0.0 |  2.48
Output  | 9.0599e-06 | 9.0599e-06 | 9.0599e-06 |   0.0 | 11.76
Modify  | 3.2187e-05 | 3.2187e-05 | 3.2187e-05 |   0.0 | 41.80
Other   |            | 4.768e-06  |            |       |  6.19

Nlocal:    4 ave 4 max 4 min
Histogram: 1 0 0 0 0 0 0 0 0 0
Nghost:    0 ave 0 max 0 min
Histogram: 1 0 0 0 0 0 0 0 0 0
Neighs:    2 ave 2 max 2 min
Histogram: 1 0 0 0 0 0 0 0 0 0

Total # of neighbors = 2
Ave neighs/atom = 0.5
Ave special neighs/atom = 1.5
Neighbor list builds = 1
Dangerous builds = 0
cacacacacacacacacacacacacacacacacacacacacacacacacacacacacacacacacacacacacacacacacasssssssssssssssssssssssssssssssssssssssss
Setting atom values ...
  1 settings made for x
  1 settings made for y
  1 settings made for z
hewre
Setting up Verlet run ...
  Unit style    : metal
  Current step  : 7
  Time step     : 0.0001
Per MPI rank memory allocation (min/avg/max) = 7.156 | 7.156 | 7.156 Mbytes
Step Temp E_pair E_mol TotEng Press 
       7            0            0    1666.5907    1666.5907    1251.7004 
0,7.0,90,0,1666.59066339062
       8            0            0    1666.5907    1666.5907    1251.7004 
Loop time of 0.000100851 on 1 procs for 1 steps with 4 atoms

Performance: 85.671 ns/day, 0.280 hours/ns, 9915.612 timesteps/s
100.1% CPU use with 1 MPI tasks x no OpenMP threads

MPI task timing breakdown:
Section |  min time  |  avg time  |  max time  |%varavg| %total
---------------------------------------------------------------
Pair    | 1.1921e-06 | 1.1921e-06 | 1.1921e-06 |   0.0 |  1.18
Bond    | 1.9073e-06 | 1.9073e-06 | 1.9073e-06 |   0.0 |  1.89
Neigh   | 4.1008e-05 | 4.1008e-05 | 4.1008e-05 |   0.0 | 40.66
Comm    | 2.861e-06  | 2.861e-06  | 2.861e-06  |   0.0 |  2.84
Output  | 1.2159e-05 | 1.2159e-05 | 1.2159e-05 |   0.0 | 12.06
Modify  | 3.7909e-05 | 3.7909e-05 | 3.7909e-05 |   0.0 | 37.59
Other   |            | 3.815e-06  |            |       |  3.78

Nlocal:    4 ave 4 max 4 min
Histogram: 1 0 0 0 0 0 0 0 0 0
Nghost:    0 ave 0 max 0 min
Histogram: 1 0 0 0 0 0 0 0 0 0
Neighs:    1 ave 1 max 1 min
Histogram: 1 0 0 0 0 0 0 0 0 0

Total # of neighbors = 1
Ave neighs/atom = 0.25
Ave special neighs/atom = 1.5
Neighbor list builds = 1
Dangerous builds = 0
cacacacacacacacacacacacacacacacacacacacacacacacacacacacacacacacacacacacacacacacacasssssssssssssssssssssssssssssssssssssssss
Setting atom values ...
  1 settings made for x
  1 settings made for y
  1 settings made for z
hewre
Setting up Verlet run ...
  Unit style    : metal
  Current step  : 8
  Time step     : 0.0001
Per MPI rank memory allocation (min/avg/max) = 7.156 | 7.156 | 7.156 Mbytes
Step Temp E_pair E_mol TotEng Press 
       8            0            0    1666.5907    1666.5907    1251.7004 
0,8.0,90,0,1666.59066339062
       9            0            0    1666.5907    1666.5907    1251.7004 
Loop time of 0.000105143 on 1 procs for 1 steps with 4 atoms

Performance: 82.174 ns/day, 0.292 hours/ns, 9510.893 timesteps/s
99.9% CPU use with 1 MPI tasks x no OpenMP threads

MPI task timing breakdown:
Section |  min time  |  avg time  |  max time  |%varavg| %total
---------------------------------------------------------------
Pair    | 9.5367e-07 | 9.5367e-07 | 9.5367e-07 |   0.0 |  0.91
Bond    | 2.1458e-06 | 2.1458e-06 | 2.1458e-06 |   0.0 |  2.04
Neigh   | 4.1008e-05 | 4.1008e-05 | 4.1008e-05 |   0.0 | 39.00
Comm    | 4.0531e-06 | 4.0531e-06 | 4.0531e-06 |   0.0 |  3.85
Output  | 1.2875e-05 | 1.2875e-05 | 1.2875e-05 |   0.0 | 12.24
Modify  | 4.1008e-05 | 4.1008e-05 | 4.1008e-05 |   0.0 | 39.00
Other   |            | 3.099e-06  |            |       |  2.95

Nlocal:    4 ave 4 max 4 min
Histogram: 1 0 0 0 0 0 0 0 0 0
Nghost:    0 ave 0 max 0 min
Histogram: 1 0 0 0 0 0 0 0 0 0
Neighs:    0 ave 0 max 0 min
Histogram: 1 0 0 0 0 0 0 0 0 0

Total # of neighbors = 0
Ave neighs/atom = 0
Ave special neighs/atom = 1.5
Neighbor list builds = 1
Dangerous builds = 0
cacacacacacacacacacacacacacacacacacacacacacacacacacacacacacacacacacacacacacacacacasssssssssssssssssssssssssssssssssssssssss
Setting atom values ...
  1 settings made for x
  1 settings made for y
  1 settings made for z
hewre
Setting up Verlet run ...
  Unit style    : metal
  Current step  : 9
  Time step     : 0.0001
Per MPI rank memory allocation (min/avg/max) = 7.156 | 7.156 | 7.156 Mbytes
Step Temp E_pair E_mol TotEng Press 
       9            0            0    1666.5907    1666.5907    1251.7004 
0,9.0,90,0,1666.59066339062
ERROR: Variable bond_dist: Mismatched compute in variable formula (../variable.cpp:1579)
Last command: run     1 #0000#
