LAMMPS (22 Aug 2018)
##
dimension 3
boundary p p p
atom_style full
units metal
kspace_style pppm/cg 1.0e-4
kspace_modify pressure/scalar no
bond_style harmonic
angle_style harmonic

neighbor 2.0 bin
neigh_modify delay 0 every 1 check yes page 500000 one 50000

region box1 block -40.0 40.0 -40.0 40.0 -40.0 40.0
create_box 4 box1 bond/types 2 extra/bond/per/atom 2 angle/types 1 extra/angle/per/atom 1 extra/special/per/atom 10
Created orthogonal box = (-40 -40 -40) to (40 40 40)
  1 by 1 by 1 MPI processor grid

molecule cat_ion cation_mol.txt
Read molecule cat_ion:
  3 atoms with max type 4
  2 bonds with max type 2
  1 angles with max type 1
  0 dihedrals with max type 0
  0 impropers with max type 0

mass    1  86.81 #anion
mass    2  67.07 #ring
mass    3  15.04 #methyl
mass    4  29.07 #ethyl

create_atoms 1 random 40 1340 box1                     #at least 40
Created 40 atoms
  Time spent = 0.00139904 secs
create_atoms 0 random 40 2345 box1 mol cat_ion 1234    #at least 40
Created 120 atoms
  Time spent = 8.89301e-05 secs
#create_atoms 1 single  10.0 0.0 0.0
#create_atoms 0 single 0.0 0.0 0.0 mol cat_ion 1234
group anion type 1
40 atoms in group anion
group ring type 2
40 atoms in group ring
group methyl type 3
40 atoms in group methyl
group ethyl type 4
40 atoms in group ethyl

bond_coeff 1 207.729 2.689748837
bond_coeff 2 207.729 3.04931147
angle_coeff 1 207.729 144.1868904


## -- INTERATOMIC POTENTIALS -- #
pair_style lj/cut/coul/long 18.0
pair_modify mix geometric
#pair_style nm/cut/coul/long 18.0
################### properties to change
## values from easy begin

pair_coeff 1 1 0.03358 4.51
pair_coeff 2 2 0.026533 4.38
pair_coeff 3 3 0.0037311 3.41
pair_coeff 4 4 0.012852 4.38

#create_bonds single/bond 1 2 3
#create_bonds single/bond 2 2 4
#create_bonds single/angle 1 3 2 4

set type 1 charge -0.78
  40 settings made for charge
#set type 2 charge  0.408675
#set type 3 charge  0.317505
#set type 4 charge  0.273820

########################################

write_data solid.data pair ij
PPPM initialization ...
  using 12-bit tables for long-range coulomb (../kspace.cpp:321)
  G vector (1/distance) = 0.103821
  grid = 10 10 10
  stencil order = 5
  estimated absolute RMS force accuracy = 0.00106761
  estimated relative force accuracy = 7.41413e-05
  using double precision FFTs
  3d grid and FFT values/proc = 3375 1000
Neighbor list info ...
  update every 1 steps, delay 0 steps, check yes
  max neighbors/atom: 50000, page size: 500000
  master list distance cutoff = 20
  ghost atom cutoff = 20
  binsize = 10, bins = 8 8 8
  1 neighbor lists, perpetual/occasional/extra = 1 0 0
  (1) pair lj/cut/coul/long, perpetual
      attributes: half, newton on
      pair build: half/bin/newton
      stencil: half/bin/3d/newton
      bin: standard

thermo_style	custom step temp pe ke ebond press density

##################################
variable    T equal 500
variable    V equal vol
variable    dt equal 0.001  # default
variable    p equal 400     # correlation length
variable    s equal 5       # sample interval
variable    d equal $p*$s   # dump interval
variable    d equal 400*$s   
variable    d equal 400*5   

# convert from LAMMPS real units to SI

variable    kB equal 1.3806504e-23    # [J/K/** Boltzmann
variable    bar2Pa equal 100000.0
variable    A2m equal 1.0e-10
variable    ps2s equal 1.0e-12
variable    convert equal ${bar2Pa}*${bar2Pa}*${ps2s}*${A2m}*${A2m}*${A2m}
variable    convert equal 100000*${bar2Pa}*${ps2s}*${A2m}*${A2m}*${A2m}
variable    convert equal 100000*100000*${ps2s}*${A2m}*${A2m}*${A2m}
variable    convert equal 100000*100000*1e-12*${A2m}*${A2m}*${A2m}
variable    convert equal 100000*100000*1e-12*1e-10*${A2m}*${A2m}
variable    convert equal 100000*100000*1e-12*1e-10*1e-10*${A2m}
variable    convert equal 100000*100000*1e-12*1e-10*1e-10*1e-10
timestep    ${dt}
timestep    0.001
variable    tdamp equal ${dt}*10.
variable    tdamp equal 0.001*10.
variable    pdamp equal ${dt}*100.
variable    pdamp equal 0.001*100.
thermo      $d
thermo      2000

variable    ILdens equal density
variable    ILstep equal step
variable    ILtime equal time*1.0e-12 #from ps to s
variable    ILtemp equal temp
variable    ILpe equal pe
variable    ILke equal ke
variable    ILpr equal press

##################################
fix         333 all print 2000 "${ILstep} ${ILtime} ${ILdens} ${ILtemp} ${ILpr} ${ILpe} ${ILke}" file density.dat screen no
dump        1 all dcd $d minim.dcd
dump        1 all dcd 2000 minim.dcd
dump        2 all custom $d dump.atom id mass type x y z
dump        2 all custom 2000 dump.atom id mass type x y z

##################################
##################################
#  Minimize initial
##################################

velocity     all create $T 502844619  mom yes rot yes dist gaussian
velocity     all create 500 502844619  mom yes rot yes dist gaussian
minimize 1.e-4 1.0e-6 1000 10000
PPPM initialization ...
  using 12-bit tables for long-range coulomb (../kspace.cpp:321)
  G vector (1/distance) = 0.103821
  grid = 10 10 10
  stencil order = 5
  estimated absolute RMS force accuracy = 0.00106761
  estimated relative force accuracy = 7.41413e-05
  using double precision FFTs
  3d grid and FFT values/proc = 3375 1000
  PPPM/cg optimization cutoff: 1e-05
  Total charged atoms: 100.0%
  Min/max charged atoms/proc: 100.0% 100.0%
Per MPI rank memory allocation (min/avg/max) = 11.73 | 11.73 | 11.73 Mbytes
Step Temp PotEng KinEng E_bond Press Density 
       0          500    8400890.1    10.276182   0.58297596 1.051608e+08  0.025685164 
     382          500   -53.273597    10.276182 0.0029246214    -11.06807  0.025685164 
Loop time of 0.278562 on 1 procs for 382 steps with 160 atoms

89.3% CPU use with 1 MPI tasks x no OpenMP threads

Minimization stats:
  Stopping criterion = energy tolerance
  Energy initial, next-to-last, final = 
         8400890.10824     -53.2686211541     -53.2735974251
  Force two-norm initial, final = 1.48053e+08 2.47445
  Force max component initial, final = 6.53831e+07 1.10191
  Final line search alpha, max atom move = 0.115668 0.127455
  Iterations, force evaluations = 382 702

MPI task timing breakdown:
Section |  min time  |  avg time  |  max time  |%varavg| %total
---------------------------------------------------------------
Pair    | 0.040529   | 0.040529   | 0.040529   |   0.0 | 14.55
Bond    | 0.0044415  | 0.0044415  | 0.0044415  |   0.0 |  1.59
Kspace  | 0.2272     | 0.2272     | 0.2272     |   0.0 | 81.56
Neigh   | 0.0014334  | 0.0014334  | 0.0014334  |   0.0 |  0.51
Comm    | 0.0017047  | 0.0017047  | 0.0017047  |   0.0 |  0.61
Output  | 0          | 0          | 0          |   0.0 |  0.00
Modify  | 0          | 0          | 0          |   0.0 |  0.00
Other   |            | 0.003254   |            |       |  1.17

Nlocal:    160 ave 160 max 160 min
Histogram: 1 0 0 0 0 0 0 0 0 0
Nghost:    350 ave 350 max 350 min
Histogram: 1 0 0 0 0 0 0 0 0 0
Neighs:    931 ave 931 max 931 min
Histogram: 1 0 0 0 0 0 0 0 0 0

Total # of neighbors = 931
Ave neighs/atom = 5.81875
Ave special neighs/atom = 1.5
Neighbor list builds = 16
Dangerous builds = 0

reset_timestep 0
fix 1 all npt temp $T $T ${tdamp} iso 1.0 1.0 ${pdamp}
fix 1 all npt temp 500 $T ${tdamp} iso 1.0 1.0 ${pdamp}
fix 1 all npt temp 500 500 ${tdamp} iso 1.0 1.0 ${pdamp}
fix 1 all npt temp 500 500 0.01 iso 1.0 1.0 ${pdamp}
fix 1 all npt temp 500 500 0.01 iso 1.0 1.0 0.1
run             200000
PPPM initialization ...
  using 12-bit tables for long-range coulomb (../kspace.cpp:321)
  G vector (1/distance) = 0.103821
  grid = 10 10 10
  stencil order = 5
  estimated absolute RMS force accuracy = 0.00106761
  estimated relative force accuracy = 7.41413e-05
  using double precision FFTs
  3d grid and FFT values/proc = 3375 1000
Per MPI rank memory allocation (min/avg/max) = 10.6 | 10.6 | 10.6 Mbytes
Step Temp PotEng KinEng E_bond Press Density 
       0          500   -53.273597    10.276182 0.0029246214    -11.06807  0.025685164 
    2000    502.40282   -101.40103    10.325565  0.071561757    268.18526   0.41842121 
    4000    517.31184   -113.34601    10.631981  0.099006736    1295.9503   0.80071993 
    6000     471.9993   -115.10389     9.700701   0.15802097    8052.6513     0.916821 
    8000    475.43517   -116.62456    9.7713163   0.41091286   -19125.426   0.98807651 
   10000    474.50869   -119.49076    9.7522749   0.16437417     11249.05    1.0495749 
   12000     496.9452   -119.83236    10.213398  0.042139717   -3208.7979    1.0085588 
   14000    487.01126   -117.85188    10.009232  0.042024117   -4640.6301   0.96281776 
   16000    475.96052    -118.0275    9.7821134   0.19840365    11174.692    1.0030157 
   18000    498.60454   -117.74392    10.247501   0.23240967   -11956.505    1.0263541 
   20000    457.29164   -118.83625    9.3984238  0.053205558    2154.0203    1.0230253 
   22000    529.96914   -119.24454    10.892118  0.097308802     8036.296    1.0041036 
   24000    524.44018   -118.65721    10.778485   0.24657025   -15102.085     1.016774 
   26000    463.19811   -116.53312    9.5198158   0.39198507    16115.759   0.97989984 
   28000    491.33966    -119.5043    10.098191   0.18327011   -12097.783    1.0529922 
   30000    503.66925   -117.33638    10.351593  0.045752526   -1534.5213   0.98249849 
   32000     491.1995   -118.99579     10.09531    0.1907282    10429.393   0.98495471 
   34000    536.25765   -117.24482    11.021362   0.18618065   -12354.507   0.97926389 
   36000    576.59273   -118.24436    11.850343    0.1006893    6721.6403    1.0160776 
   38000    500.41731   -117.74648    10.284758  0.057077058      257.971    0.9890827 
   40000    502.04982   -119.54379     10.31831    0.1144649   -8464.9869    1.0036569 
   42000    504.50009   -117.28577    10.368669   0.20711863    11276.674   0.98168276 
   44000    437.47796   -118.65446     8.991206   0.09639449   -9873.7481    1.0198938 
   46000    482.52544   -117.46215     9.917038  0.038420577    1808.1236   0.98242015 
   48000    469.30966   -116.50634    9.6454224   0.14328894    7732.7957   0.96269044 
   50000    526.48619      -116.55    10.820535   0.13104116   -8018.1756   0.96780677 
   52000    455.81214   -116.85158    9.3680167   0.13857475    8322.0194   0.96935976 
   54000    541.64481    -115.2136    11.132081  0.057284045   -3603.9313   0.92902516 
   56000     500.6456    -119.6666     10.28945  0.082645102   -6783.9214    1.0265049 
   58000    564.09866   -116.34765     11.59356   0.13296661     7359.243   0.94736377 
   60000     454.1549   -119.11356    9.3339564   0.16263574     -11582.5     1.032137 
   62000    492.76447   -118.83983    10.127474  0.085180034   -6033.9606     1.027624 
   64000    435.26608   -118.02756    8.9457464   0.39421043    17436.829    1.0030109 
   66000    467.47905   -118.23077    9.6077992   0.29284747   -15805.122   0.98794513 
   68000    543.80034   -118.16543    11.176382  0.050101464    2340.9114    1.0223284 
   70000    480.59591   -120.55685    9.8773817   0.14055669    8973.3666    1.0476789 
   72000    491.85083   -118.00016    10.108697     0.241085   -13362.927    1.0174109 
   74000    533.26338    -117.0279    10.959823   0.10453138    7243.3146    1.0120052 
   76000    496.77553   -118.14367    10.209911  0.041458278   -674.14138    1.0076017 
   78000    529.23856   -117.41099    10.877103  0.095615168   -6845.3987    0.9595244 
   80000    485.49409   -116.43658    9.9780509   0.32369058    14707.759   0.94079919 
   82000    486.35359   -118.82813    9.9957156   0.25829605   -15469.818    1.0423639 
   84000    565.71089    -118.9892    11.626696  0.069247884    2201.0541    1.0239822 
   86000    516.28464   -116.59183    10.610869    0.2197905    10845.736   0.94796092 
   88000    496.76934   -118.43928    10.209784   0.23162651   -14797.004    1.0105377 
   90000    464.20215   -119.66641    9.5404511   0.19747517    11852.111    1.0446212 
   92000    480.51446   -119.77259    9.8757076  0.055464049   -1307.0386    1.0167993 
   94000    513.81268   -119.74386    10.560065  0.076975625   -5828.2326    1.0226996 
   96000    495.44553   -120.65895    10.182576   0.24291611    13924.088    1.0763785 
   98000    479.00569   -119.00959    9.8446989   0.16894227   -12266.318    1.0558573 
  100000    490.69899   -117.29781    10.085024  0.054861809    1331.2833   0.95949731 
  102000    420.02412   -117.65717    8.6324882   0.19163023    11364.286     1.027857 
  104000    489.37164   -116.01743    10.057744   0.37364988   -17763.507   0.97961218 
  106000     493.6542   -116.38152     10.14576   0.16641647    10279.204     1.029743 
  108000    487.37096   -114.92429    10.016625  0.059391313    626.68086   0.88330618 
  110000    458.48491   -118.32454    9.4229484  0.065174307    -6071.088    0.9741347 
  112000    553.47839   -117.96042    11.375289   0.10536602    6917.4419   0.99842482 
  114000    479.64856   -117.93703    9.8579113   0.16657968   -10994.339   0.99542141 
  116000    470.22534   -120.52501     9.664242  0.070333824    4815.4685    1.0753889 
  118000    506.98119   -116.75936    10.419662   0.19928029    10326.269   0.97784514 
  120000    518.90255   -119.08679    10.664673    0.1782924   -12312.951     1.019804 
  122000    501.79137   -119.00858    10.312999   0.19188089    11332.247    1.0309433 
  124000    506.07511   -116.41359    10.401039  0.047586284    -1411.273   0.93202338 
  126000    501.82492   -118.10795    10.313688  0.097188392   -6979.0763    1.0194614 
  128000    469.71281   -117.56514    9.6537081   0.38233349    16138.534   0.99971132 
  130000    506.58714   -118.84708    10.411563   0.19859663   -12802.001    1.0204291 
  132000    514.54969   -117.65793    10.575212  0.041821941    1010.6006     1.009366 
  134000      503.943   -116.49012     10.35722   0.14107604    9134.9699   0.99120378 
  136000     426.6259   -116.04927    8.7681704    0.2589473   -13929.594   0.95089832 
  138000    562.02894   -118.91145    11.551023   0.20774417    10801.275    0.9896502 
  140000      490.348   -117.09114     10.07781  0.062213685   -3553.3868   0.95603165 
  142000    468.35904   -118.38779    9.6258851   0.04222185   -2181.0544   0.99399215 
  144000    491.25854   -116.51262    10.096524   0.17185472    9452.0644   0.96234964 
  146000     537.2788   -116.86094    11.042349  0.082642157   -5895.4374   0.97022559 
  148000    546.29395   -119.10188    11.227632   0.15696815    8883.9409    1.0238418 
  150000    452.64415   -117.48927     9.302907  0.087995983     4340.095   0.96091298 
  152000    498.26156   -116.22795    10.240453   0.45725939   -19840.205   0.97393729 
  154000    527.39994   -117.73184    10.839315   0.29487668    14868.466   0.99827416 
  156000    474.62357   -118.08574    9.7546358  0.065404873   -4943.3493    1.0179299 
  158000    502.31725   -119.35386    10.323806  0.096806354   -6828.1509    1.0564824 
  160000    545.37447      -117.87    11.208734   0.53738814    19503.548   0.97456055 
  162000    498.28594     -117.427    10.240954   0.22538276   -13262.403    1.0521215 
  164000    576.56339   -115.75999     11.84974  0.060486607    2212.5334   0.95548304 
  166000    488.33963    -118.0567    10.036533    0.2079109    11540.158   0.99248207 
  168000    467.89134   -118.10314    9.6162726   0.18301211   -11921.538    1.0026857 
  170000    500.69319   -116.28752    10.290428   0.13913362    7157.1449   0.96673369 
  172000    504.31071   -115.11016    10.364777  0.060271836    11.540699    0.9379251 
  174000    503.63403   -116.59822    10.350869   0.13976131   -9394.5382    0.9436781 
  176000    461.52381   -117.99914    9.4854048   0.32377813     15574.43    1.0204537 
  178000     524.8172   -118.46395    10.786234   0.20445225   -12668.642   0.98830505 
  180000    536.92477   -117.67965    11.035073  0.065150348    1039.0107   0.98155772 
  182000    475.80858   -117.53922    9.7789907   0.10260869    6776.0059     1.037029 
  184000    480.18671    -117.6419    9.8689716    0.1398423   -10261.236   0.99800814 
  186000    534.93327   -118.14535    10.994143   0.24818755    13518.264    1.0273793 
  188000    528.64653   -119.35395    10.864935   0.07475472    4365.4377    1.0328862 
  190000    535.38731   -116.15721    11.003474   0.26277696   -13735.361   0.98630029 
  192000    472.61017   -117.31867    9.7132558   0.46537418    19153.557    1.0107778 
  194000    453.23435   -119.37436    9.3150369   0.10989606   -8367.9793    1.0378111 
  196000    510.75212   -115.92747    10.497163  0.077871447   -5205.2194   0.99215331 
  198000    446.93878   -118.33628     9.185648   0.26851691    13858.857    1.0343562 
  200000    460.13101    -117.6477    9.4567796   0.14194648   -9382.1362   0.99022202 
Loop time of 268.571 on 1 procs for 200000 steps with 160 atoms

Performance: 64.341 ns/day, 0.373 hours/ns, 744.683 timesteps/s
98.4% CPU use with 1 MPI tasks x no OpenMP threads

MPI task timing breakdown:
Section |  min time  |  avg time  |  max time  |%varavg| %total
---------------------------------------------------------------
Pair    | 145.9      | 145.9      | 145.9      |   0.0 | 54.33
Bond    | 1.4374     | 1.4374     | 1.4374     |   0.0 |  0.54
Kspace  | 64.122     | 64.122     | 64.122     |   0.0 | 23.88
Neigh   | 3.9308     | 3.9308     | 3.9308     |   0.0 |  1.46
Comm    | 3.2271     | 3.2271     | 3.2271     |   0.0 |  1.20
Output  | 0.062353   | 0.062353   | 0.062353   |   0.0 |  0.02
Modify  | 49.067     | 49.067     | 49.067     |   0.0 | 18.27
Other   |            | 0.8217     |            |       |  0.31

Nlocal:    160 ave 160 max 160 min
Histogram: 1 0 0 0 0 0 0 0 0 0
Nghost:    2916 ave 2916 max 2916 min
Histogram: 1 0 0 0 0 0 0 0 0 0
Neighs:    31935 ave 31935 max 31935 min
Histogram: 1 0 0 0 0 0 0 0 0 0

Total # of neighbors = 31935
Ave neighs/atom = 199.594
Ave special neighs/atom = 1.5
Neighbor list builds = 3634
Dangerous builds = 0
unfix 1
unfix 333
fix 1 all nvt temp $T $T ${tdamp}
fix 1 all nvt temp 500 $T ${tdamp}
fix 1 all nvt temp 500 500 ${tdamp}
fix 1 all nvt temp 500 500 0.01

reset_timestep 0
variable     pxy equal pxy
variable     pxz equal pxz
variable     pyz equal pyz
fix          SS all ave/correlate $s $p $d              v_pxy v_pxz v_pyz type auto file S0St.dat ave running
fix          SS all ave/correlate 5 $p $d              v_pxy v_pxz v_pyz type auto file S0St.dat ave running
fix          SS all ave/correlate 5 400 $d              v_pxy v_pxz v_pyz type auto file S0St.dat ave running
fix          SS all ave/correlate 5 400 2000              v_pxy v_pxz v_pyz type auto file S0St.dat ave running
variable     scale equal ${convert}/(${kB}*$T)*$V*$s*${dt}
variable     scale equal 1e-32/(${kB}*$T)*$V*$s*${dt}
variable     scale equal 1e-32/(1.3806504e-23*$T)*$V*$s*${dt}
variable     scale equal 1e-32/(1.3806504e-23*500)*$V*$s*${dt}
variable     scale equal 1e-32/(1.3806504e-23*500)*13280.6621039509*$s*${dt}
variable     scale equal 1e-32/(1.3806504e-23*500)*13280.6621039509*5*${dt}
variable     scale equal 1e-32/(1.3806504e-23*500)*13280.6621039509*5*0.001
variable     v11 equal trap(f_SS[3])*${scale}
variable     v11 equal trap(f_SS[3])*9.61913465128529e-11
variable     v22 equal trap(f_SS[4])*${scale}
variable     v22 equal trap(f_SS[4])*9.61913465128529e-11
variable     v33 equal trap(f_SS[5])*${scale}
variable     v33 equal trap(f_SS[5])*9.61913465128529e-11
variable     v equal (v_v11+v_v22+v_v33)/3.0
fix          333 all print $d "${ILstep} ${ILtime} ${ILdens} ${ILtemp} ${ILpr} ${ILpe} ${v}" file visco.dat screen no
fix          333 all print 2000 "${ILstep} ${ILtime} ${ILdens} ${ILtemp} ${ILpr} ${ILpe} ${v}" file visco.dat screen no
thermo_style custom step temp pe press v_pxy v_pxz v_pyz v_v11 v_v22 v_v33
run          8000000
PPPM initialization ...
  using 12-bit tables for long-range coulomb (../kspace.cpp:321)
  G vector (1/distance) = 0.140477
  grid = 6 6 6
  stencil order = 5
  estimated absolute RMS force accuracy = 0.000362703
  estimated relative force accuracy = 2.51883e-05
  using double precision FFTs
  3d grid and FFT values/proc = 1331 216
Per MPI rank memory allocation (min/avg/max) = 10.66 | 10.66 | 10.66 Mbytes
Step Temp PotEng Press v_pxy v_pxz v_pyz v_v11 v_v22 v_v33 
       0    460.13101   -117.70635   -9398.7174    -3478.333    1002.4376    119.32736 0.00058189995 4.8330433e-05 6.8483518e-07 
    2000    521.63859   -117.24182    6429.7084   -212.82043    -1922.184     847.6679 0.0065932929 0.00014865436 0.00029271579 
    4000    481.31528   -117.42284   -2120.1075   -336.70354   -536.75163   -1552.3312 0.0022097652 -7.4075532e-05 0.00061688162 
    6000    527.53784   -117.73952    -1490.281    314.83089    261.45704    358.76349 0.0015391428 -5.4775479e-05 0.00065233703 
    8000    498.90312   -118.01179    7733.7554   -1721.6829    2299.3751   -1150.1187 0.0016437297 -1.6032191e-05 0.00052631929 
   10000    463.73531   -117.18992   -7531.9309    118.73744    417.86119   -53.826624 0.0014591608 0.00013425656 0.00032016578 
   12000    485.54652   -118.01845    6410.1338    1629.4164    25.518475    1118.0522  0.001338409 9.4147634e-05 0.00025422397 
   14000     517.0048   -117.91309   -5127.7317   -605.89524    513.09647   -822.24802  0.001149217 7.772219e-05 0.00032677638 
   16000    515.37385   -117.60943   -2771.5671   -600.71085   -147.10811   -40.188229 0.00099153245 9.0076086e-05 0.00049156555 
   18000    484.29202    -116.8644    6147.6615    1058.5763   -729.59683   -1645.2417 0.00094679136 0.00015642743 0.00040303771 
   20000    478.67826   -118.04666   -7398.0229    561.06325   -723.70503   -496.46248 0.00083464944 0.00023558536 0.00034036226 
   22000    533.96857   -116.19608     9005.093   -164.44695   -199.34482   -1489.2296 0.00076167446 0.00020293558 0.00038524549 
   24000    482.99219   -117.78157   -2449.9501   -257.05075   -30.461986   -542.63382 0.00070886544 0.00019873059 0.00034001345 
   26000    502.28431    -117.9729   -951.50321   -97.019958    1019.8677     178.8285 0.00068384063 0.00013816888 0.00037182671 
   28000    555.58488   -117.78226    3319.5567    849.02389     1355.465   -146.34148 0.00064901901 0.00018743665 0.00033898157 
   30000    486.83793   -117.44395   -9619.2347    572.46688   -1982.1628   -710.17679 0.00064251704 0.00018826069 0.00032243827 
   32000    569.04011   -118.17066    6599.6857   -1262.0488   -452.66389    1638.5189 0.00061605351 0.00018997567 0.00046587862 
   34000    535.44918   -118.35605   -3291.8721    1144.2808    163.13092   -417.78243 0.00056066705 0.00018535369 0.00039904061 
   36000    528.48724    -118.4934    1742.8603   -974.43783    22.646002    608.25725 0.00053440113 0.00019219229 0.00041811499 
   38000    486.29272   -118.64566    4537.7013   -413.57467    1253.4515   -151.45449 0.00050167835 0.00017411615 0.00042456274 
   40000    505.07879   -119.33079    -6707.799   -967.17411    637.49088    144.02722 0.00048629047 0.00017006204 0.0004216712 
   42000    524.50267   -117.31699    7790.7719   -1500.7649    256.74364   -32.814215 0.00049468228 0.00016864472 0.00048634986 
   44000     472.2539   -117.23423   -6528.6388    -733.0969     388.0319   -1535.4618 0.00055202447 0.00017310095 0.00049508208 
   46000    488.98967   -118.88331    872.79867    1553.5295   -1378.8382   -1308.8896 0.00056438774 0.00016527886 0.00050282201 
   48000    503.31405   -118.10276    2684.7801    -507.6988    1377.3834     786.3788 0.00053364068 0.00016125809 0.00049463596 
   50000    508.62251   -117.16956   -4967.3271   -770.24093   -1517.2625    49.182167 0.00052899082 0.00015888687 0.0004794661 
   52000    429.90864   -116.39536    8629.8152    -1098.479    745.88299    773.77192 0.00052389287 0.00015192598 0.00046564533 
   54000    526.24913   -117.70826   -5304.6786   -279.19377   -129.98941   -789.36536 0.00050792755 0.00017747914 0.00047072288 
   56000    520.14553   -117.37272    363.09773   -552.46657   -987.79629    846.43862 0.00049338029 0.00016094671 0.00045627484 
   58000    472.24837   -116.95144    907.47939    1475.0454    1112.0241    1362.3022 0.00047862386 0.00017801398 0.00042863906 
   60000    498.07109    -117.4396   -5494.0924    1225.9938     138.7028   -712.38481 0.00047520532 0.00017430808 0.00041905039 
   62000    464.19565   -116.83133    6853.3461   -999.36452    127.63154    1571.5398 0.00047665851 0.00017362993 0.00041623045 
   64000    473.68723   -116.41205    -3564.515   -84.945857    -535.9206   -277.22173 0.00051791975 0.0001914103 0.00041561931 
   66000    506.16925   -117.48881    3186.1885   -551.01869    867.32268    17.620026 0.00050224866 0.00023812563 0.00040427864 
   68000    481.82574   -116.64282    2804.2064   -165.28705   -1168.8061   -354.10073 0.00049471326 0.00022381386 0.00040889721 
   70000    535.73392   -119.29059   -5929.3114    557.55113   -464.62244    440.70045 0.00048390016 0.00023625107 0.00043817845 
   72000    481.16154   -117.73179    4599.4621    274.87781   -1990.6556   -549.80109 0.00049846524 0.00023650859 0.00047569331 
   74000    529.92933   -116.54676    -6905.538    -927.4586   -212.51543    113.44528 0.00048973336 0.00022367413 0.00048661925 
   76000    501.80032   -117.86782    2316.7516   -533.11583    1283.4937    578.59352 0.00055187111 0.00022075744 0.00052382397 
   78000    515.07678     -117.709     1394.055   -266.06161   -837.14512    957.29836 0.00053978289 0.00021302403 0.00051554451 
   80000    500.84619    -117.8827   -2407.2014    721.38817    944.90254   -1058.9584 0.00054205186 0.00020320697 0.00052361555 
   82000    542.48935    -117.9395    6529.2123   -97.043143   -948.51505    511.09876 0.00051797953 0.00020790042 0.00054432278 
   84000     480.2218   -118.14198   -5978.5597    436.94657    1974.8785   -2887.0254 0.00050837661 0.00019991858 0.00052804401 
   86000    499.02142   -119.41177    1808.3424   -954.37703   -3.3105895   -1355.2653 0.00050669282 0.00020027505 0.00052070432 
   88000    500.23108   -117.42183   -1287.8983   -528.78577   -537.06601   -443.68868 0.00050280564 0.00020156221 0.00057923745 
   90000    467.71286   -117.28788    -2741.628   -752.20383    655.27501   -1635.4993 0.00052324731 0.00019348434 0.00057252157 
   92000    489.12003   -116.43835     5424.472    1369.8424    -280.7356    1840.8554 0.00051186955 0.00019727786 0.00056232363 
   94000    546.82353   -116.78036   -4664.5217   -927.97603    1211.1462   -320.09934 0.00051440278 0.00022932251 0.00060122004 
   96000      468.829   -118.03942    3769.2486    213.72354   -323.47539   -742.04651 0.00051381206 0.00022741474  0.000587354 
   98000    501.46732   -116.61907   -1697.7576    205.16593   -413.17646   -427.66115 0.00054245692 0.00023921251 0.0005865302 
  100000    520.15924   -117.98681   -2983.7215   -280.24275   -1566.9997   -112.53899 0.00056769433 0.00026095876 0.00057699556 
  102000    501.48804   -116.76856    2399.8408    1206.6215    2219.6542   -1658.4916 0.00057439144 0.00027795389 0.00056454316 
  104000    524.89677   -117.37107   -5763.0447   -1221.0004    890.57022   -1242.6814 0.00056338521 0.00027886037 0.0005538288 
  106000     454.4151   -117.12405    4237.8756    582.43613   -1855.8695    1252.4804 0.00055299992 0.00027284102 0.00055520907 
  108000    531.93707   -118.37488   -1018.9849   -453.65004   -541.04386    827.78346 0.00054129628 0.00027038099 0.00056097788 
  110000    506.26639   -117.97377    752.24368    1678.1318   -781.21817   -459.90448 0.00053153768 0.00027171032 0.00055726758 
  112000    536.77861   -117.81104    3308.7863    999.83794   -744.65555   -100.81306 0.00053871236 0.00027745205 0.00054548642 
  114000    488.31299   -118.39422   -5357.0661   -2990.3863    187.93896   -1067.4844 0.00057818943 0.00028482339 0.0005358114 
  116000    491.76832   -117.79606    2668.7271   -99.200063    828.62715   -902.24398 0.00056867707 0.00027945776 0.00055414965 
  118000    529.18727   -117.35088    -2291.971   -1303.1976    23.849471   -772.69055 0.00057700379 0.00027625722 0.00057505904 
  120000    496.16584   -118.42511   -1044.2442     -813.826    12.519075   -414.70553 0.00057268857 0.00031234194 0.00057215006 
  122000    652.44644   -117.97244    3812.3943    3028.3364   -401.00573   -1318.8251 0.00056428561 0.00030410338 0.00058171738 
  124000    505.83857   -118.47374   -3296.9235   -818.45076    953.88974    1536.9011 0.00055633978 0.00031314662 0.00061625775 
  126000    509.56852   -117.65582    4019.8939   -25.858047    81.467928   -1482.3677 0.00055134279 0.0003190615 0.00061032406 
  128000    502.14306    -119.1531   -2430.0541    1158.7669     1716.809   -1073.0766 0.0005615668 0.00031620936 0.00060289161 
  130000    488.91616   -117.25855   -2386.3792   -487.92892   -1247.2884    4.1011531 0.00055104828 0.00031737628 0.00059482633 
  132000    524.56243   -118.07023    1627.6252    1289.8281    472.45192   -468.95687 0.00056043945 0.00030839199 0.00059014562 
  134000    501.68083   -118.72147   -4124.7379    1806.8056   -471.57115   -468.63991 0.00055330974 0.00030720497 0.00057943957 
  136000    485.42576   -117.75428    4417.2149   -2917.6912     464.2963    -1245.374 0.00054514534 0.00031081446 0.00057019224 
  138000    464.21396   -118.92684   -1896.9301   -78.425711     1123.938   -214.56406 0.00054160755 0.00031038768 0.00057043909 
  140000    442.10019   -117.59301    1465.5714   -1199.7293    1046.7294    806.80793 0.00053588463 0.00030446088 0.00056590356 
  142000    388.43563   -117.45749    2748.0316    247.96088    237.70138   -1353.3169 0.00053488223 0.00030001991 0.00055914605 
  144000    470.59063    -117.5926   -4988.0821   -387.15218    705.23665   -413.99339 0.00055663274 0.00029922676 0.00055495245 
  146000    497.17736   -116.88106    3375.7888    538.49278    193.66409    1552.4329 0.00054613147 0.00030403052 0.00054779521 
  148000    453.56264   -119.30301   -4798.1734    8.3069206   -863.31582   -928.77752 0.00053841078 0.00038832563 0.00054643569 
  150000    495.24109   -117.04122    24.593051   -262.51819   -48.403636    1878.3053 0.00052770652 0.00038556263 0.00054458703 
  152000    459.27309   -118.03746    2680.1172   -123.72783    957.29708   -1137.8149 0.0005150054 0.0003860657 0.00057596434 
  154000    482.87403   -117.27052   -2587.5014    2147.6614    105.11889    274.64363 0.00051886953 0.00040315542 0.00063836882 
  156000    517.03018   -115.80513    4645.6941    1688.6535    1620.7045    2560.2684 0.00051587777 0.0003896094 0.00062525377 
  158000    470.06761   -117.58885   -2977.1603     199.2507    763.25335   -648.28541 0.00051275914 0.00039138091 0.00062025517 
  160000    509.20511   -118.99847   -1189.5715    1064.6394    961.44865    705.81167 0.00050669744 0.00038983365 0.00061355909 
  162000    505.11742   -118.10481    774.90112    196.97103    1033.7268   -766.30886 0.00051701481 0.00038627267  0.000608722 
  164000    485.17873   -117.86544   -3775.7387   -1625.2049    518.25116   -918.46409 0.00052395716 0.00037944724 0.00060307328 
  166000    475.71886   -117.32434    5613.3915   -2979.5651   -2111.8371    1414.1472 0.00051781142 0.00039530786 0.00061178048 
  168000    577.52889   -116.29907   -655.46534   -66.379923    1854.9921   -1472.8406 0.00051499361 0.0003844273 0.0006376869 
  170000    500.29746    -118.5307    1901.5134    359.99938    -994.6505    642.84994 0.00051807247 0.00039026134 0.00063123411 
  172000    511.33405    -119.1723    739.71559   -113.94386   -532.70759    189.96412 0.00051044723 0.00038786098 0.00062805732 
  174000    484.33891   -119.82616   -4329.3976    150.54876   -353.16421    192.99025 0.00050164777 0.00038424851 0.00062788728 
  176000    488.66352   -118.23863    1913.6795   -945.42138   -905.05295   -1647.9709 0.00049873986 0.00039459315 0.00061980655 
  178000    565.41145   -118.47388   -4342.5998    505.68504   -1603.9542    1308.8868 0.00049478039 0.00039121503 0.0006176377 
  180000    472.73993   -118.16208    1473.5089   -1279.1475     727.8794   -1607.9945 0.00049137437 0.00041735368 0.00060755601 
  182000    493.28107   -117.76962     1106.924    100.78643   -504.78287    671.82773 0.00049192579 0.00042211989 0.00060814462 
  184000    487.83051   -116.65423   -1744.6032    1334.2935    446.77036   -1362.2144 0.00048836456 0.00041893165 0.00060758978 
  186000    499.16722   -117.61687    3460.6366    1167.8397    147.28764   -1276.5634 0.00048439559 0.00041761831 0.00060245731 
  188000    500.29159    -119.1475   -3888.1071   -498.28474   -672.93533    157.71224 0.00047983344 0.00042180189 0.00062039918 
  190000    490.02198   -117.79809    606.34836   -1152.4663     180.8233    556.00355 0.00047403112 0.0004180089 0.00062017331 
  192000    446.92709   -117.71039   -95.768451    1503.7681    558.60397    494.75361 0.00047228048 0.0004142839 0.00061933189 
  194000    524.71089   -117.93303    -3522.058   -175.58523   -1529.3802    107.80629 0.00047098885 0.00041226252 0.00061239381 
  196000    423.19502   -117.26653    4645.8861   -663.93415     1585.136   -1234.8843 0.00047128114 0.00040910162 0.00061418172 
  198000    528.30695   -117.99032    -2192.498     1253.762     470.2694    57.482457 0.00047245172 0.00041391953 0.00060936399 
  200000    495.70581   -117.97638    3060.2435   -648.14764   -917.18213   -696.12493 0.00047048028 0.00041503854 0.00060412832 
  202000    423.83234   -118.45329    94.300292    -986.2607   -771.46464    808.99173 0.00046360313 0.00043547441 0.00059447616 
  204000    445.50267   -118.34703   -3970.9405    337.12766    1635.7911   -632.64584 0.00046039255 0.00043779299 0.00059637122 
  206000    504.69091   -116.94045    2566.1592   -1088.7982   -785.20513   -1613.6493 0.00045746695 0.00045795944 0.00059207137 
  208000    457.12303   -117.26532   -3116.5369    351.83693    749.83454   -479.90099 0.00045383576 0.00045217544 0.00058722938 
  210000    491.81287   -116.41873    2919.8655   -804.07665   -7.3958172      197.724 0.00045747824 0.00045012822 0.00059720345 
  212000    435.55368   -118.81195    467.05072   -1250.0851   -1230.6974    455.18713 0.00045971645 0.00044642978  0.000599078 
  214000    472.71258   -117.84947    87.694555   -629.31464   -588.38716    1038.8942 0.00045999894 0.00044309744 0.00059351263 
  216000    442.43362   -118.26109    3439.0638   -1707.9615    262.26135    783.20099 0.00045502287 0.00043900317 0.00059004267 
  218000    503.33941   -117.99565    -3457.806   -1814.0777    1513.6119    20.314844 0.00044958853 0.00043647526 0.00058455305 
  220000    475.37069   -117.99507    1016.3122   -1066.7097   -712.50235   -1126.6168 0.00044624212 0.00043271908 0.00057981735 
  222000    507.21151   -118.27689   -452.53094   -978.81667   -662.87599   -596.53782 0.00044128121 0.0004318447 0.00057459406 
  224000    494.80939   -118.22952   -2091.9995    1190.8795   -943.96266   -1724.4085 0.00043790478 0.00042720983 0.00057372542 
  226000    554.90967   -117.60735    4829.4827    84.535001    1121.3052   -802.36546 0.00043755709 0.0004246812 0.00057237211 
  228000    605.67191   -117.44015   -2226.7979   -602.29851   -531.25846    755.20446 0.00043571132  0.000417444 0.00057574569 
  230000     507.7403    -117.8366    2226.6642   -1171.4515    83.896046   -1295.2612 0.0004297116 0.00042471782 0.00057123443 
  232000    516.17578   -117.84519    -1376.402   -1410.3339     -1339.21   -794.16346 0.0004308979 0.00043288087 0.00056762488 
  234000    550.73088   -117.66347   -3375.6385    639.16697   -1080.9204   -798.63236 0.00043317571 0.00043707906 0.00056752984 
  236000    499.89491   -117.24527    1650.9205   -1008.8067   -560.74608   -867.60873 0.00042927388 0.00043355948 0.00056684021 
  238000    498.52683   -118.40076   -3130.2686   -615.78508    639.99087    2854.0563 0.00042497165 0.00042982941 0.00056179223 
  240000    510.51826   -118.10226    3649.6895    1120.7167   -557.05388    642.84711 0.00042103413 0.00042812537 0.00055831898 
  242000    457.42735   -118.27212    40.282525   -1371.3878    1058.2165   -317.49255 0.00042091529 0.00043058349 0.00055547779 
  244000    432.85493   -118.59112    730.94759    269.30936   -174.24478    337.09975 0.00041776453 0.00042655054 0.00055919003 
  246000    472.10637   -118.89395    2178.6758   -1146.6555   -153.35417    974.77869 0.00042723621 0.00042955055 0.00056315248 
  248000    531.56725   -117.54886   -3860.4833    126.07719    725.88761   -2242.1948 0.00042215549 0.00042554859 0.00056354103 
  250000    506.82753    -119.0586    1771.8255   -1125.3622    502.93449    661.00576 0.00042382439 0.00042752886 0.00057236526 
  252000    505.31016   -117.72737   -3172.5941     -120.963    13.244248    1002.9422 0.00044254933 0.0004235103 0.0005635009 
  254000    469.27673   -117.66803   -1066.7656   -1030.5938   -571.27537    1462.8015 0.00045375571 0.00042324422 0.00056433765 
  256000    507.48599   -117.32462    2688.6184   -1756.5878    -673.5967   -485.85689 0.00045324587 0.00041987655 0.00056270403 
  258000    471.76825   -117.18104   -3160.4256   -1505.0783   -462.53119    1990.4666 0.00045162093 0.00041674573 0.00055822946 
  260000    482.72523   -118.18998    2934.3167    706.06067   -764.27437   -379.65643 0.00044898239 0.00041691698 0.00055409528 
  262000    477.13561   -116.41329   -2680.3056    103.05628    -2404.628    898.69452 0.00044413048 0.00041441751 0.00055259297 
  264000    511.09947   -117.16645   -1367.1088    -569.2303   -1220.2933    -447.0377 0.00044645757 0.0004159256 0.00055137974 
  266000     492.5018   -117.23423    2219.8618   -486.07455    -18.01201    1135.7405 0.00044192272 0.00042212666 0.00054792038 
  268000    494.41685   -117.90223   -2736.4476    1339.7818   -654.49146    185.10445 0.00044510405 0.00041963892 0.00054309021 
  270000    512.55908   -116.68341    5195.1495    1757.5224   -407.53081   -1540.0208 0.00049176285 0.00041846253 0.00054339094 
  272000    498.20808   -116.33078   -695.96603   -870.06765    1845.5739    442.03814 0.00051050622 0.00043493899 0.00053772333 
  274000    534.76864   -118.63326    441.53928    -287.7336   -436.19796    417.22396 0.00051228297 0.00043933881 0.00053637582 
  276000    523.93249   -118.52051   -59.413207    899.23703    1630.4255    23.586721 0.00054759277 0.00044035092 0.00053513868 
  278000    454.33932   -118.01665     -4040.73     209.8014    -1937.424    266.70345 0.00055344664  0.000453113 0.00053105026 
  280000    500.29346   -118.20977    1509.9648    2306.3738    1145.0587   -586.84306 0.00057679527 0.00044937179 0.00052588366 
  282000    567.16912   -117.88424   -3013.9238     876.1972   -1087.5855   -328.18248 0.00058371756 0.00044592977 0.00052357578 
  284000    466.92686   -117.98137    1700.2073    617.15852    1055.3959   -800.21419 0.00058281936 0.00044273802 0.00051986308 
  286000    498.70085   -117.55741    2701.7362    965.89161     2737.182    677.23819 0.00057541168 0.00044227631 0.00051831065 
  288000    449.22801   -117.24603   -1390.8963   -524.45677    1151.8701     446.6047 0.00058018323 0.00044021834  0.000512989 
  290000    492.80848   -118.13021    3294.5125   -1003.2111    2558.8997    490.06615 0.00059119987 0.00043760095 0.00050868785 
  292000    542.62865   -118.55849   -3729.8118    2920.4459    452.74352    235.88209 0.00060129944 0.00043224049 0.0005153759 
  294000    516.34938   -117.25803    528.12417    872.69702   -133.23342   -1127.6667 0.00059804784 0.00042785321 0.00051452689 
  296000    505.74057    -118.5163     136.6938   -571.77731   -448.76106   -91.626068 0.0005929278 0.00042499935 0.00051496176 
  298000    527.55375   -117.61695    -2718.051   -324.65651   -1029.9398   -563.25019 0.00059176953 0.00042430728 0.0005109331 
  300000    485.77562   -117.84607     3205.996    55.809446   -1142.6773    674.03864 0.00058860639 0.00041975172 0.00051303302 
  302000     471.7519   -118.03193   -3044.1568     3220.146    391.50789    1523.3874 0.00058510206 0.00041593502 0.00050898597 
  304000    497.28325    -117.5018    1464.5071   -1919.3705     116.5487    1461.8773 0.0005974092 0.00042042693 0.00050617256 
  306000    542.62576   -117.88464   -794.77306    515.67609   -1475.5048   -128.58586 0.00059462295 0.00043261261 0.00050252114 
  308000    422.38733   -117.94554   -3086.7785    612.05947   -811.67308    313.00486 0.00059482918 0.00043493874 0.00049889295 
  310000    480.98691    -119.2745    2001.4109    -1162.056   -291.98026   -1711.4806 0.0006001323 0.00043501021 0.00050089898 
  312000     542.0771   -117.47812   -2272.7704   -685.61842   -295.38405    108.40609 0.0005946345 0.00043531155 0.00050425416 
  314000    470.94162    -117.5055    2682.6191    944.78206   -1199.2181   -277.42986 0.00059157978 0.00043118801 0.00050194218 
  316000    532.79167    -118.0182    1721.6335   -911.63475   -953.31779    325.04487 0.00059974148 0.0004309662 0.00049946132 
  318000    473.86334   -118.35116   -1942.4949   -607.40462    1897.9386    1218.7365 0.00059759821 0.00043010591 0.00049744049 
  320000    505.55558   -117.67927    2753.1083   -1830.0639    1893.8109   -1712.9692 0.00060796926 0.00042676091 0.00049499337 
  322000    494.48667   -116.37724    -4426.788    -1913.215   -1380.7677    909.90453 0.00061753886 0.00042608501 0.00050106795 
  324000    538.81615   -118.11609    289.95695     1245.438   -197.79075    735.80944  0.000614103 0.00042494958 0.00050096682 
  326000    537.48035   -117.09168   -238.73544   -2560.4582   -604.36188    716.66813 0.00061152651 0.00042261531 0.00050046832 
  328000    530.00543   -116.87689   -1443.2319   -1027.4828   -1053.8015    750.77028 0.00060794253 0.0004191664 0.00050413034 
  330000    502.22312   -118.14384    3552.9322    146.71351   -761.68843   -1023.0318 0.00060573476 0.00041723142  0.000507416 
  332000    514.20543   -118.19878   -2540.2591    67.167173    405.59555    -40.59196 0.00060105322 0.00041325221 0.0005012543 
  334000    488.63865   -117.33267    1331.1415    742.89014    -713.9367    871.12561 0.00059788818 0.00041059301 0.0004992277 
  336000    556.68194   -119.09055   -514.98631    -199.3288    1044.6999    136.13617 0.00059445593 0.0004092655 0.00050145864 
  338000    479.96611    -117.6139    -2406.222    1446.2157   -1869.1493    1060.1731 0.00059179725 0.00040701909 0.00050069872 
  340000    504.66529   -118.99061    2880.3678   -683.72887    -758.2323     1172.099 0.00058694027 0.00040768806 0.00049651776 
  342000    499.26193   -118.93127   -2770.0683   -1799.9232    1185.1151    948.64891 0.00058286699 0.00040621193 0.00049677438 
  344000    458.22019   -118.41375     928.4902   -454.16313   -530.37313   -1304.4121 0.00058514566 0.00040451482 0.00049811984 
  346000    516.52151   -118.57539    1011.1021   -978.61345   -34.379903   -662.26929 0.00058745125 0.00042613587 0.0004948207 
  348000    500.25973   -118.46169   -2986.4143   -1348.2415   -124.92265   -724.61052 0.00060258237 0.00043743773 0.00049392731 
  350000    503.90788   -119.22492    1941.7243   -160.97783   -366.93268   -1991.8626 0.00060226181 0.00044856101 0.00049136545 
  352000     472.2738    -118.2677   -4722.2359    994.08808   -465.81126    50.003072 0.00059983164 0.00044696841 0.00048904109 
  354000    512.76305   -118.10615    242.73529    1796.9906   -1479.7448     2245.216 0.00059542265 0.0004472116 0.00049211787 
  356000    509.02716   -117.36209    931.02558    -363.4367   -901.47099   -414.01075 0.00059276886 0.00045087842 0.00048836353 
  358000    444.32385   -118.06023   -1856.9245   -648.03222    1206.2762   -237.13613 0.00059301469 0.00044796262 0.00048770328 
  360000    512.96006   -118.13545    3306.6038   -623.67236   -1321.4234   -646.17858 0.00059378972 0.00044552055 0.00048341526 
  362000    472.57851   -116.58078   -1792.7772    955.81479    25.578818   -572.36802 0.00058721925 0.00044507009 0.00048230985 
  364000    451.16837   -117.40874    1221.7612    -143.5985    1115.6795    921.46806 0.00058899754 0.00044353582 0.00047714944 
  366000    533.36481   -118.23499     80.74059    433.68983    342.41443    470.55052 0.00059972519 0.00044148845 0.00047492785 
  368000    457.93737   -117.59805   -2477.6447   -1165.4486    944.22376   -1567.9287 0.00060733026 0.00044033755 0.00047261153 
  370000    550.47647   -118.43671    3008.7426    770.59484    2059.4322   -1956.7916 0.00060413571 0.00043856477 0.00047969492 
  372000    554.74551   -116.72543   -2188.4315    452.98817    699.50936    849.16006 0.00060157051 0.00043603485 0.00048330919 
  374000    501.17491   -118.88407    1768.3816   -39.136611   -229.87126    304.17942 0.00059984613 0.00043321412 0.00049142554 
  376000    536.38921   -118.21573    584.53119   -1644.3638   -120.34689   -160.15229 0.00060558507 0.0004334312 0.00049684501 
  378000    532.53418   -118.71688   -2994.5331    228.85951    62.389932   -441.49874 0.00060084679 0.00043235148 0.00049429005 
  380000     455.4599    -117.5488    1686.4464   -1569.9598    1904.1059   -1061.5734 0.00059823621 0.00044863332 0.00049171875 
  382000    500.62194   -117.55113   -3890.6677    258.39815    1329.6236   -553.64403 0.00060499237 0.00045349552 0.00048921861 
  384000     557.1753     -117.898    1474.1881     1083.585   -608.89819    873.97919 0.00060870467 0.0004514129 0.0004934746 
  386000    455.44939   -118.32779    -560.0109   -312.80065   -466.22417   -515.06892 0.00061017809 0.00044918399 0.00049012442 
  388000    519.06899   -117.30741   -1083.7161    252.96583   -555.10633   -2672.3757 0.00060779167 0.00044705455 0.00049090596 
  390000    496.52989   -117.85142    3356.3622    1881.7974    821.52619   -1176.5034 0.00060476443 0.00044624183 0.00048892008 
  392000     486.0691   -118.19145    -3106.654   -645.81208    489.95446   -756.80077 0.00060164183 0.00045232647 0.00048816074 
  394000    454.12266   -116.95487    1917.0635      1374.94   -961.91962   -1117.9356 0.00059902295 0.00047027804 0.00048992918 
  396000    507.87069   -117.13591   -1323.1831     150.6069    967.82979    271.37011 0.00059631312 0.00047153716 0.00049930806 
  398000    477.38128   -116.72624   -1513.5076    1339.5293   -62.935153   -1494.8514 0.0005927211 0.00047317777 0.00050071694 
  400000    458.41963   -116.68405    1815.0767    509.79947   -741.29155    134.00423 0.00058985182 0.00047347895 0.00049967029 
  402000    461.34732   -116.57718   -2977.3921    912.28713    690.45058   -585.14117 0.00058984161 0.0004717111 0.00049790383 
  404000    497.63208   -117.18378    3026.5247    246.99597    315.07087   -2208.2672 0.00058589691 0.00046831189 0.00049952542 
  406000    530.17741   -117.01484   -726.24235    -206.0163   -1376.6554    1106.3552 0.00058406606 0.0004659535 0.00050101557 
  408000    555.32822   -117.27041    -943.6845      326.223   -1224.6116    841.14297 0.00058160886 0.00046689172 0.00049960759 
  410000    479.06448   -119.06624     448.1865    566.37895    973.97065   -46.232427 0.00058080645 0.0004687262 0.00049986881 
  412000    506.74682   -117.30105   -2719.2946    685.29942   -1504.6525   -14.208815 0.00058120543 0.00046626968 0.00049667188 
  414000    540.83498   -117.49391    3169.2733   -715.49206    582.33944    665.14691 0.00058006977 0.00046649676 0.00049306383 
  416000    492.21945   -117.36243   -236.97149    17.544603   -960.76741    1453.7216 0.0005765802 0.00047077694 0.00049007004 
  418000    525.36386   -117.14928    2203.1451    -1555.386   -511.40466    1333.4935 0.00058073604 0.00046766813 0.00048822054 
  420000    496.15949   -116.20064    1813.7014    -189.5185    585.15451   -1048.1179 0.00058009221 0.00047009629 0.00049400216 
  422000    506.53299   -117.55854   -1610.2796   -2078.3428   -206.58991    1315.3817 0.00058187903 0.00046859542 0.00049072513 
  424000    416.64861   -117.74166    2465.5488    693.95541    1851.8017    -1797.895 0.00058164696 0.00046622049 0.0004903636 
  426000    446.83227   -118.09947   -2692.0222   -407.79841    1762.1386    1351.4143 0.00058102533 0.0004684271 0.00049759108 
  428000    497.77982   -117.58433   -459.92898    23.191905   -299.33674    238.60571 0.00057771306 0.00047549771 0.00050157897 
  430000    525.70376   -116.95759      579.834    940.70238    2779.4975    -1065.669 0.00057545035 0.0004772098 0.00050266863 
  432000    472.16101    -117.5193   -2168.2147    1435.8935    -812.0192    1076.4634 0.00057293581 0.00047532017 0.00050006731 
  434000    536.70862   -117.34453     2876.256   -1562.7145    767.73657    337.65427 0.00058366717 0.00047453468 0.00049846739 
  436000    525.40882   -118.86237   -1771.0133   -1618.9377    34.236965    765.64768 0.0005896778 0.00047862471 0.00050006047 
  438000    503.92396   -116.92942    1510.8851   -905.08592   -233.36309    1437.3229 0.00059407663 0.00047938338 0.00049496509 
  440000    488.09543   -118.40833    684.57008    2479.6112   -124.09859    1654.8277 0.00059320962 0.00048690112 0.00049329689 
  442000    460.71109   -116.92713   -1765.2456   -1219.1062    360.40118    1344.4434 0.00059304853 0.00048345365 0.00049546998 
  444000    498.93547   -117.28342    2638.6881   -750.32626   -1250.6791    382.71532 0.00059483354 0.0004911765 0.00049210543 
  446000    463.76818   -118.17033   -1893.7125    88.413776    890.73883   -956.67893 0.00059904023 0.0004888018 0.0004896079 
  448000     489.3135   -118.16752    1199.2535    1732.1601   -296.39617   -513.81879 0.00059973781 0.00048909056 0.00049106232 
  450000    542.09461   -118.00492     421.4507    143.87312    -432.6506   -1013.2107 0.00059651028 0.00048706187 0.00049746552 
  452000    466.95179   -118.19796   -2584.5207   -1796.8511    1739.0709   -438.05367 0.00059432872 0.00048190334 0.00049652246 
  454000    489.01185    -117.7447    2037.8611     31.97804    786.52345   -2195.2456 0.00059219365 0.00047873756 0.00049383597 
  456000     448.7967   -117.35495   -3608.8049   -637.41547     392.4714   -1034.9457 0.00059240159 0.00048255928 0.0004914901 
  458000    488.19757   -116.51876    1013.2664     1635.941    206.43534   -621.49594 0.00059020072 0.00048057155 0.00050231363 
  460000    501.30844   -118.62884   -283.66943    2419.6089    1616.5387    1051.8615 0.00058775879 0.00047990149 0.00052910708 
  462000    501.72292   -118.92615   -1467.3407   -2497.0769   -148.34321   -1734.8308 0.00058561355 0.00047883021 0.00053642189 
  464000    450.43061   -118.86908    2765.6194   -533.90506   -401.30532   -1069.8645 0.00058495409 0.00047859661 0.00053622073 
  466000    534.80747   -117.45105   -1489.3335    2482.7186    1391.0847     1806.679 0.00058932781 0.00047790145 0.00053626954 
  468000    517.65978   -117.71208    1536.5595    122.94156   -768.19824   -698.36063 0.00058420231 0.00047917778 0.00053713105 
  470000    506.67547   -118.92688   -859.66462   -362.71038   -99.309196   -72.466024 0.00058069233 0.00047669419 0.0005436784 
  472000    530.96676   -117.54699   -1513.3205   -158.19078    1454.2977     832.8944 0.00057809251 0.00047777327 0.00055039862 
  474000    456.91264       -117.1    1752.8958   -1336.2861   -1288.4292    46.857918 0.00057605393 0.00048130124 0.00054820169 
  476000     432.4121   -117.95937   -2922.2539    2026.5179    148.82779     1314.421 0.00057544797 0.00048163028 0.00054918513 
  478000    509.91246   -117.68672    1337.8363      556.276   -1144.5463   -844.06748 0.0005909591 0.00047949276 0.0005475122 
  480000    491.10894   -117.74207   -1281.9394    338.70915    1354.4138    39.590688 0.0006013409 0.00047987834 0.00054896999 
  482000     495.6191   -117.81341   -618.52533    1678.1155    334.05129   -495.94099 0.00060002879 0.00047990478 0.00054474574 
  484000    466.90743   -117.64039    911.98993   -1465.2445    208.35044    351.83854 0.00060383972 0.00049228258 0.00054325407 
  486000    466.74372   -116.99222   -2045.9964   -436.35961     1390.129    1845.4474 0.00060625944 0.00049557347 0.00054390704 
  488000    490.72399   -117.90428    1135.5231   -900.61507   -249.91913   -922.18473 0.00060582221 0.00049716918 0.00054364739 
  490000    501.92953   -118.38199   -92.749456    1720.8734   -25.629423   -967.82966 0.0006043726 0.00049566125 0.00054260875 
  492000    525.08381   -116.69254    1588.5245    793.81081   -117.59034   -997.43933 0.00060172995 0.00050271911 0.00054263163 
  494000    469.96009   -117.26145    2311.0547    606.25692    281.13611    192.51532 0.00060442629 0.00050569679 0.00054140544 
  496000    475.06038    -117.5243    -1866.901   -1262.2202   -1646.9175     634.5883 0.00060316404 0.00050886072 0.00054009694 
  498000     471.0298   -118.38881    891.03653   -1371.8319    -705.3277   -16.696666 0.00059943342 0.00051257683 0.00053824852 
  500000    487.70029   -118.96417   -2117.1314    398.95287    1009.8365    1606.9661 0.00060386846 0.0005107376 0.00054142152 
  502000    552.96877   -117.33224   -1661.2711   -830.22444   -1007.6006   -2879.0709 0.00060084547 0.00051131707 0.00053941104 
  504000     497.7338   -117.94821    740.38392    492.94998    571.83099    1824.0171 0.00060995953 0.00051197124 0.00054139503 
  506000    502.60251   -118.99661    -2865.818   -762.10789   -530.83991   -69.006824 0.00061010208 0.00051282831 0.00053890233 
  508000    461.61114   -117.77131    1228.8076    811.79006   -567.59993   -753.95951 0.00060767133 0.00051382367 0.00053736743 
  510000    524.12351   -118.69767   -1455.6518   -275.15952    944.23417   -457.67235 0.00060689932 0.00051224917 0.00053646614 
  512000    489.38696   -118.18001   -505.92897    -690.9844    1070.8542   -397.34388 0.00060555023 0.00051333053 0.00054414781 
  514000    520.13027   -118.82188    525.78467    8.7742785   -561.05646    420.62071 0.00060349118 0.00051023036 0.00054163718 
  516000    530.39624   -118.53854    -832.2426    1176.4222    1480.3034    303.52182 0.00060100309 0.00050676058 0.00053954279 
  518000    499.89307   -117.78124    1778.7815    416.19347   -836.83367    2393.2203 0.00059994262 0.00050416189 0.00053745797 
  520000    503.72896   -119.29395   -1656.5887    334.98072   -1827.5357   -497.07536 0.00060501561 0.00050423037 0.00053665121 
  522000    524.91851   -117.55808    824.26522    1322.4201    141.52062    138.16698 0.00060297843 0.00050268671 0.00053500456 
  524000    442.15584   -116.89765      562.942   -575.73862   -265.77811     1248.496 0.00060320932 0.00049962817 0.00053455081 
  526000    515.51892   -116.80052   -1775.3814    1450.1922     1364.965    2034.7311 0.00060406969 0.0004975679 0.00053298184 
  528000    522.85289   -117.29062     1587.984    1926.2682    1277.5234    1280.4301 0.00060188489 0.00049611798 0.00053123765 
  530000    443.36304   -117.64878   -1787.4532    189.67558   -2480.6361   -558.76493 0.00060207544 0.00049442292 0.00053041954 
  532000    569.61981   -117.89831    95.438257   -391.46256   -433.96993    679.07941 0.00060068239 0.00049281409 0.00052895484 
  534000     529.6586   -116.56956    1326.5827     1245.715   -1022.6926   -723.76059 0.00060025264 0.00049318079 0.00052914293 
  536000    504.23844   -118.20724   -1202.9636   -2358.4997    892.69246   -619.50979 0.00060063726 0.00049157611 0.00052692397 
  538000    547.06457   -118.02927    2793.6194    456.42722     350.7221    151.24661 0.00059731767 0.00049085872 0.00052897488 
  540000    482.05131    -116.3787   -705.81305   -962.33289   -1621.3767   -289.08639 0.00059674881 0.00049016466 0.0005315822 
  542000    480.30417   -116.85736    928.73093   -49.459603   -107.21201   -1105.7607 0.00059502249 0.00049213629 0.00053708408 
  544000    474.06335   -117.93071    539.34776    304.44792     9.813995    1494.0997   0.00059085 0.00049004163 0.00053376507 
  546000    499.40522     -118.944   -2633.7982   -1144.8522   -3179.3665    1073.2634 0.00059185921 0.00048852821 0.00053160398 
  548000    551.44372   -118.14119    2337.3106   -1040.2745    882.87679    370.98008 0.00059231995 0.0004875433 0.0005319536 
  550000    451.77286   -118.42259   -2048.8002   -512.34229    634.97855    1511.3331  0.000591691 0.00048922462 0.00053074367 
  552000    553.06164   -116.91476    561.97846    1324.4543    799.04831   -1503.6142 0.00058896255 0.00048774892 0.00052849745 
  554000    488.14826   -116.74394    405.53552    291.07038   -165.57036     1634.057 0.0005876291 0.00048677761 0.00052673091 
  556000    489.49477   -117.32603   -2203.6944   -476.99934    1072.9512    1723.2628 0.00058587365 0.00048505542 0.00052545331 
  558000    522.22545   -117.69488    1357.7994    1623.7654   -885.29495    709.63255 0.00058249724 0.00048503673 0.00052659137 
  560000    425.15818   -118.91894   -2343.4234    685.44675    225.65653   -1046.0387 0.00058188219 0.00048627149 0.00052458271 
  562000    464.78581   -117.04224     1319.752   -2715.6135    1839.3383    1232.7783 0.00058080092 0.00048918699 0.00052265984 
  564000    498.36584    -118.4912    386.13593    1439.0255   -992.63743   -43.387468 0.00058159641 0.00048734236 0.00052249915 
  566000    522.11311   -117.30669   -882.90877   -975.66135   -466.71806   -473.61065 0.00057965377 0.00048867491 0.00052240999 
  568000    518.53671   -118.06002    1835.4077   -140.98318    219.58836   -387.42329 0.00057967715 0.0004910063 0.0005200869 
  570000    514.80608   -117.82293   -1636.9957   -938.70366   -2076.3781   -1422.0008 0.00057873633 0.00048971093 0.00052358998 
  572000    565.62662   -116.70763    -11.07895   -48.801586   -1217.3286   -305.60693 0.00057616518 0.00048767109 0.00052548735 
  574000    554.92111   -118.91666    -1210.794     1239.926    198.41497   -2179.1179 0.00057440292 0.00048614441 0.00052373232 
  576000     516.2493   -116.95688    -1784.086    2460.1895   -746.64978   -300.74954 0.00057658633 0.00048585782 0.00052320608 
  578000    524.19584   -117.23331    2337.1694    701.52974     1613.432    578.60765 0.00057551335 0.00048677176 0.00052267776 
  580000    491.23567   -118.24333   -2409.9508   -982.42457    310.24744   -726.37158 0.00057415221 0.00048609203 0.00052283821 
  582000     455.1245   -117.68593    2384.1897   -594.61363   -1039.5663    125.07044 0.00057110054 0.0004897103 0.00052052114 
  584000    564.59141   -117.94471   -298.38598    1167.5016    1670.0771   -965.31458 0.00056980191 0.00049745027 0.00051941812 
  586000    491.01347   -117.01628   -1570.1193   -1641.6146     2058.298   -528.93808 0.00057561737 0.00049320481 0.00051854732 
  588000    462.22478   -117.83076    1570.8089    162.96729     1459.139   -319.50465 0.0005770468 0.00048987171 0.0005171069 
  590000    554.35328   -117.33734   -2587.4795   -6027.4435   -1091.9853     1679.944 0.00057733266 0.00049061185 0.00051827696 
  592000    495.93418   -116.92333    990.89755   -440.99336   -2790.9857    471.40514 0.00057726011 0.00048715367 0.00051855864 
  594000    497.48008   -118.02153   -2037.0638    1171.2516    600.74058   -1112.6131 0.00057850278 0.0004867815 0.00051714116 
  596000    468.66999    -119.6792   -1758.0756    493.30515   -331.28342    609.93798 0.00057785979 0.00048794871 0.00051806394 
  598000    510.80118    -117.5902     2043.933   -1560.4318   -560.96956   -1115.1111 0.00057821508 0.00048956947 0.0005186445 
  600000    521.08565   -118.25867    -3687.032    23.382663    394.20462    2725.1983 0.00057598367 0.00049005659 0.00051800375 
  602000    524.74241   -117.26096    2829.0713   -126.35096   -2300.2117   -262.18626 0.00057518549 0.00049337518 0.00052254947 
  604000    457.07629   -117.80821   -1015.1227   -733.24189   -1022.2458    1237.6931 0.00057282245 0.00049705309 0.00052343418 
  606000    448.30031   -117.75515    -620.7336    -233.5099   -90.218722   -673.81838 0.00057050722 0.00049604465 0.00052306209 
  608000    509.33382   -118.81883    2418.6328    1350.0281   -590.69502   -679.35409 0.00056851664 0.00049481607 0.00052490575 
  610000    471.11615   -116.51802   -2668.2191    1304.1174   -1145.8344   -961.07505 0.0005700965 0.00049505153 0.00053192721 
  612000    484.52619   -118.20482    2187.1288   -171.08076   -2204.6888    709.67224 0.00056851954 0.00049728246 0.00053053138 
  614000     536.1131   -116.92415   -233.80734   -1109.5641    1210.2048    1549.0174 0.00056693368 0.0004973309 0.00052921175 
  616000    536.62778   -118.58614   -1402.2663    831.42004     2736.958   -1790.6889 0.00056745458 0.00049490252 0.00052830155 
  618000    459.02419   -117.60952    2218.4929   -2511.7402    560.13166    -400.6879 0.00056909917 0.00049514763 0.00052630194 
  620000    503.14074   -117.78988   -4508.4492   -833.09429    -1518.838    1532.2518 0.00056769034 0.00049461449 0.00052406269 
  622000    548.06318   -117.23126     2121.096   -45.459704    905.03131   -225.64191 0.00056554637 0.00049300271 0.00052202086 
  624000    484.92307   -116.75608   -1722.5473   -5.5865671    1283.1417    1506.3759 0.00057145704 0.00049293199 0.00052220297 
  626000    484.63821   -117.90717   -65.608398   -885.49663   -1069.3129   -151.30004 0.00056891547 0.00049258055 0.00052360062 
  628000    534.27838   -117.94188    2277.4681    852.01755    267.70415    143.25217 0.00056786711 0.00049490613 0.00052134672 
  630000    494.19386   -117.19703   -1816.3476   -1436.6247   -3345.7065    -1283.629 0.00056644143 0.00049037115 0.0005206743 
  632000    491.75454   -117.22287    3580.9625     692.6464    406.49608   -221.71992 0.00057493858 0.00049149795 0.00052503523 
  634000    473.90661   -117.54592    -1966.211    1096.7129   -301.05162   -1336.2778 0.00058378563 0.00049244496 0.00052514988 
  636000    499.40575   -117.93078   -85.169084    1476.1347    451.34177   -903.37947 0.00058399558 0.00049990607 0.00052368609 
  638000    520.09112   -117.80421    35.407246    754.91317   -1158.5847   -187.06223 0.00058283235 0.00049841352 0.0005225279 
  640000    469.19419   -117.60854   -2849.2444    144.83558   -375.71336    -3187.817 0.00058102175 0.00049687898 0.00052241699 
  642000     517.6004   -118.39624    2607.8456   -811.81004   -351.75594    524.23075 0.00057908499 0.00049662167 0.00052241917 
  644000    548.95304   -117.65836   -2648.5205   -331.92561    836.44039    659.04045 0.00058975338 0.00049698937 0.00052269022 
  646000    485.42108   -117.11619    1432.3172     840.6812   -2053.8143    87.735611 0.00058854089 0.00050168818 0.00052392004 
  648000    551.65553   -117.85014   -952.41194    1051.2299   -1880.2069    1750.3496 0.00058581523 0.00049957941 0.00052651428 
  650000    480.32256   -116.98918   -2195.3291    -1238.793   -292.57362    972.34848 0.00058401084 0.00049766897 0.00052717597 
  652000    508.08395    -118.7454    1734.8039     1618.576   -782.53289    -557.9639 0.00058232943 0.00049644924 0.00052529146 
  654000    519.14398   -118.06668   -2759.6961   -243.57412   -38.926461    2496.2033 0.00058057011 0.00049491809 0.00052369953 
  656000    517.95201    -117.7007    2824.9825    668.89339    -209.8155   -1449.6978 0.00057892807 0.00049349912 0.00052264606 
  658000     464.2777   -117.78079    433.95346   -1603.9979    698.29157    349.53712 0.00057774394 0.0005018665 0.0005215574 
  660000    497.12498   -117.99312    -1233.092   -1206.1778    2856.2998   -1777.3548 0.00057636158 0.00050450428 0.00052135417 
  662000    472.86079   -117.66397    2584.7128    745.32764    703.82915   -298.11608 0.00057508234 0.00051651075 0.0005208264 
  664000    447.98203   -118.35165   -3305.7383    163.65443    273.27052   -888.78379 0.00057308407 0.00052289065 0.00052310887 
  666000    459.92926   -117.82046     1889.331   -1274.9029   -3775.5202   -1137.4562 0.00057415649 0.00052401762 0.00052380109 
  668000     468.3834   -118.06461   -482.89105   -893.42328    1155.1459   -304.04416 0.00056973663 0.00053489939 0.00052176308 
  670000    480.44534   -117.87871   -1480.6072   -266.97211   -4.7176213   -1073.6689 0.00056937332 0.00054788392 0.00052162779 
  672000    509.13484   -117.90024    2925.9788    492.23611    1254.7861    1801.1913 0.00056914608 0.00054968206 0.00051940695 
  674000    425.73616   -117.89802   -2810.7797   -323.53794    1886.2698   -2481.3951 0.00056919056 0.00054802905  0.000517839 
  676000    501.44401    -118.4254    1227.3775    338.08729    398.76713    850.65838 0.00056839636 0.00054791877 0.00052092861 
  678000    467.25305   -117.65278   -1115.0648     969.8073    959.02882   -115.54289 0.0005663066 0.0005466627 0.00052735988 
  680000    463.78349   -117.66094   -950.86916   -1361.0867    690.03279    1476.1632 0.00056511006 0.00054854884 0.00052696172 
  682000    467.60157   -119.06197    1293.6682   -1064.6966   -1302.9504   -31.987615 0.00056752012 0.00054951802 0.00052532286 
  684000     505.2655   -116.63942   -1079.7839    764.79759     2380.045   -1078.9994 0.00056750966 0.00054781932 0.00052391665 
  686000    518.90846   -117.60533    3464.8002    811.79056   -860.89271    1093.4331 0.00056590674 0.00054603391 0.00052268613 
  688000    482.70382   -118.66008   -963.71531   -1094.3955    1147.1912    488.29284 0.00056465712 0.00054477112 0.00052195834 
  690000    505.18583    -117.9273    226.73791    481.17341   -468.46366    715.42086 0.00056351485 0.00055326898 0.00052042731 
  692000    525.28819   -117.42353    883.97801    1295.5549   -49.284596    839.89979 0.00056557894 0.00055277008 0.00051938998 
  694000    523.32438   -117.16238   -1959.0564   -685.02794    163.14029   -1577.2677 0.00056453433 0.0005531867 0.00052015225 
  696000    474.61547   -117.32544     2835.242      2548.39   -2237.1584    2636.2478 0.00056344289 0.00055932698 0.0005199734 
  698000     511.2118   -118.49591   -2127.7722    1026.2383   -320.27622    932.17502 0.00056553809 0.00056492148 0.0005183852 
  700000    495.68172    -117.7411    813.28632    2117.4205   -2203.8915    146.22572 0.00056543279 0.00056589305 0.00051699063 
  702000    475.25239     -118.405    375.72826    -483.1658    1299.8877   -1881.4588 0.0005637134 0.00056515836 0.00051768577 
  704000    504.28164   -117.35817   -1849.7854    538.55473   -2739.6566   -980.54559 0.00056150728 0.00056350251 0.00052272842 
  706000    522.51206   -117.75392    1445.1284   -3923.3502    -1459.927   -767.02746 0.00056060094 0.00056248018 0.00052215846 
  708000    528.03716   -118.92678   -3340.4138   -747.03658    364.10166   -281.31411 0.00056109165 0.00056053224 0.00052155805 
  710000    513.67355     -119.097    389.68468   -604.41713     1317.291   -937.46915 0.00055787918 0.00055824762 0.00052020504 
  712000     532.4444   -118.76705   -903.71221    1328.7615   -648.50383   -407.62883 0.0005568351 0.00055618853 0.00051819699 
  714000     467.4102   -117.47165   -1185.0305   -2163.1159   -764.34762     500.7647 0.0005555191 0.0005551772 0.00051755376 
  716000    484.37246    -117.1112    2639.2192   -601.12681    1456.1272   -470.58982 0.00055395599 0.00055407102 0.00051586135 
  718000    445.77685   -118.35813   -1743.7771    1682.1188   -917.33856   -1712.3545 0.00055339376 0.00055366601 0.00051421888 
  720000    507.48057   -117.41987    1699.7334   -1092.9183    476.98396   -689.88829 0.00055338777 0.00055316309 0.0005153855 
  722000    558.16193   -117.61827   -971.35595    591.52933   -2108.0216    835.95233 0.0005517066 0.00055515725 0.00051531103 
  724000    465.33055   -115.93648   -95.644768     -1784.71   -129.00787   -164.47001 0.00055068019 0.00055835915 0.00051702527 
  726000    482.83125   -117.88727    786.18417   -1013.6485    1583.8597   -1040.4504 0.00054994904 0.00056008414 0.00051556535 
  728000    466.71522   -117.32507   -2254.8017   -1059.9645    405.82012    693.73915 0.00054996519 0.00055966398 0.00051388035 
  730000    507.27453   -116.58708    2115.6938   -961.98511    209.55743    548.83809 0.00054784469 0.00056141077 0.00051167576 
  732000     539.7066   -117.50045   -646.86839    1348.4378    3543.3657   -1398.3102 0.00054722722 0.00056099649 0.0005157698 
  734000    553.40613   -117.75188   -275.29711   -1339.3006   -992.23813    2535.4791 0.00055156837 0.00056132403 0.00051452783 
  736000    469.14428   -118.64715    330.32205    1764.3764    1151.8792    -1316.597 0.00055050215 0.00056064764 0.00051352209 
  738000    549.81758   -117.19014   -900.03182    404.49043   -1512.8212    855.86201 0.00055045564 0.00055896847 0.00051236816 
  740000    482.76275   -118.62516    2483.7455   -701.46873    269.60959   -497.08533 0.00054946521 0.00055803243 0.00051288077 
  742000    438.67348   -118.91135   -2472.3475   -23.163943   -556.33241    1883.8144 0.00054917933 0.00055646103 0.00052113039 
  744000    509.28297   -116.31423    2284.2844   -146.79918   -1508.1319   -264.03019 0.00055018655 0.0005556555 0.00052002506 
  746000    486.07942   -117.46476    694.29917   -199.32213    1130.1208     2860.063 0.0005477195 0.00055675538 0.00052056576 
  748000    480.22518   -118.44781   -1397.6151    157.11937    1822.4428   -673.38707 0.00054777551 0.00055544106 0.00051938362 
  750000    481.53593   -117.76543    2172.3705   -1442.6619   -92.146067   -940.78576 0.00054527195 0.00055541883 0.00051839289 
  752000    463.75659   -118.54539   -3520.0332    578.39407    421.49844    1162.8356 0.00054435674 0.00055521495 0.00051916798 
  754000    472.20998   -117.45564    1226.3871   -327.95988    1351.5994   -312.53031 0.00054652202 0.00055355446 0.00051782244 
  756000    447.69426   -117.69199   -1536.3199    668.28762    210.77816    1590.9566 0.00054560951 0.00055489161 0.00052017478 
  758000    489.43241   -116.75697   -429.37809     345.9957      226.343   -1021.5234 0.00054716383 0.0005535988 0.00051917636 
  760000    501.23633   -119.05208    825.20506    1061.6545    1662.9672    71.801355 0.00054696286 0.00055313119 0.00051808193 
  762000    529.81276   -117.41113   -2784.1511    1705.7082    441.44059   -1994.6422 0.00055602114 0.00055378646 0.0005197523 
  764000    491.73556   -119.33714    1783.0236    -228.8923   -232.00308    1129.3944 0.00055689129 0.0005532095 0.00051894614 
  766000    514.36795   -118.60819   -1757.3842    609.12954    73.314435   -2762.3623 0.00055766187 0.00055183511 0.00052243624 
  768000    451.61289   -117.88459   -137.80279    1145.7236   -1872.4073     520.9936 0.00055783804 0.00055039151 0.00052014055 
  770000    523.29338   -118.14171    2108.3837   -1184.2136    902.17169   -890.87858 0.00055679602 0.00055497762 0.00051928294 
  772000    466.50452   -117.34356   -2313.7314   -737.90027    744.43611    707.30765 0.00055748823 0.00056110013 0.00051881541 
  774000    513.89365   -118.20377    3613.9562    1535.7862   -1211.5963   -1997.6537 0.00055768308 0.00055860412 0.00051677802 
  776000    525.12489   -118.45479   -1527.7676    579.07731   -715.11464    144.36243 0.00055592364 0.00055769938 0.00051516632 
  778000    490.50038   -118.70345   -405.80589    805.44497    1460.2397    591.55174 0.00055713712 0.00055644971 0.00051227033 
  780000    482.56209   -117.79813    508.46602   -810.48695   -1494.3099   -2435.2903 0.00055572986 0.00055628605 0.00051427989 
  782000     520.1967   -118.46054   -4734.7913    1570.0162    1057.2127    1114.9597 0.00055576759 0.00055741703 0.00051337124 
  784000    485.34081    -117.9292    3441.7988   -910.33881   -1074.9479    18.230037 0.00055525498 0.00055652544 0.00051230378 
  786000    467.51177   -117.94254   -3208.0402   -2085.0454     4871.708   -365.54538 0.00055393536 0.00055529692 0.00051099526 
  788000    520.79628   -117.65015    661.92951   -113.56104    1237.3678    -240.1179 0.00055204982 0.00055738858 0.00051348893 
  790000    489.60259   -117.31857    1315.2243    1085.0912    1688.6094   -1559.6896 0.00055265629 0.0005584754 0.00051313444 
  792000    499.40224   -118.35208   -3157.3716    557.38727    1818.9604    656.34965 0.00055341711 0.00056254012 0.00051156041 
  794000    441.75357   -117.32098    4638.6216   -1878.0171     395.9282    1901.9547 0.0005541664 0.00057346102 0.00051446949 
  796000    521.73556   -117.83301   -5599.3454    1408.4233   -1324.4652   -1524.3842 0.00055225685 0.00057547223 0.00051306586 
  798000    517.55456   -115.80944    2105.7371   -534.43983    -990.0816    2231.9856 0.00055071665 0.00057587741 0.00051182224 
  800000    503.33237   -117.39874    208.94252    639.16706    1217.8139    690.86682 0.00054950142 0.00058030602 0.00051123384 
  802000     485.9678   -117.47967   -3273.2656    502.19822   -1893.5176    1163.7163 0.00054899858 0.00058262963 0.00051054279 
  804000    528.57187   -116.03555    4706.5946   -1290.0049    3891.2884    943.97124 0.00055103146 0.00058169183 0.00050992516 
  806000    455.32386   -117.31293   -3985.2165   -515.74422   -47.893821   -364.21518 0.0005649916 0.00058034697 0.00050916545 
  808000    488.50549   -118.02511    2083.9771   -114.31791    1343.4627   -813.26703 0.00056339752 0.0005791583 0.00050823796 
  810000    478.88484   -118.51252   -196.52637    -1037.004    1037.6888   -1218.9712 0.00056195812 0.00058246999 0.00050744201 
  812000    509.58569   -117.32826   -3902.6393    6.5818133    1202.6951    1563.0962 0.00056055466 0.00058134973 0.00050702536 
  814000     530.7998   -117.45456    3924.6482   -1367.0603   -242.46012    1340.5231 0.00055851141 0.00057991352 0.00050483885 
  816000    465.80459   -116.90598   -4721.3066    724.13056    1998.3308    553.00063 0.00055776211 0.00057897357 0.00050427388 
  818000    489.75477   -117.69887    2420.5147    220.77656     472.1959   -946.84399 0.00055702996 0.00057782147 0.00050417494 
  820000    465.20359   -117.61222   -188.04172   -1226.7149   -107.98271    1112.9451 0.00055734888 0.00057739257 0.0005059678 
  822000    487.36478   -116.81684   -1939.9127    3910.5171    211.57116   -1725.3772 0.00055887215 0.00058448389 0.00050493522 
  824000    524.51469   -118.21956    3616.6759   -523.41741    1991.6637   -2838.0648 0.00055928563 0.0005915448 0.00050481181 
  826000    456.09398   -117.16865   -5219.7404   -1072.2906   -1087.6375    527.00796 0.00055739175 0.00059176624 0.00050384586 
  828000    559.41756   -116.93936    3531.5594   -889.99468    1205.1432    841.67129 0.00055624446 0.00058958756 0.00050533084 
  830000     511.8925   -117.66276   -836.59178   -319.44046    354.96345    682.07631 0.00055493496 0.00058823081 0.0005040386 
  832000    497.96485   -117.15907   -1509.7769    1821.1868   -537.98815    1630.5279 0.00055403178 0.00058693252 0.00050495716 
  834000    492.95688   -117.45471    3888.4674      -885.74    2114.4078    789.71933 0.00055269527 0.00058872133 0.00050319315 
  836000    520.70721   -117.71488   -3682.6399   -1088.4384   -1762.0598   -570.19014 0.00055425008 0.00058696959 0.00050185977 
  838000    533.48863   -117.34362    3587.3496    233.20628   -1061.2756    794.27539 0.00055315412 0.00058585592 0.00050080751 
  840000    553.00567   -117.84522   -2529.0159    925.10698    1348.7587    482.78029 0.00055641782 0.00058680513 0.00050285885 
  842000    518.96585   -118.26141   -836.87793   -49.696032   -3423.9381    742.68502 0.0005546228 0.0005839584 0.00050188453 
  844000    493.21958   -117.21263    2416.7975   -189.91448   -771.60108    2396.9877 0.00055353887  0.000582261 0.00050116284 
  846000    541.27564   -117.28045   -3649.6926    155.52668   -62.024747    552.75835 0.00055378054 0.00058137519 0.00050504708 
  848000    532.64903   -117.46987    3714.0602    512.21831    943.36269    721.81859 0.00055276529 0.00057973387 0.00050598602 
  850000    492.96865   -117.73969   -3394.3982    76.881594    943.56978   -2076.1428 0.00055146023 0.00057843121 0.00050441723 
  852000    521.17928    -118.4356   -58.647949     847.2014    1687.9274   -21.221188   0.00055188 0.00057722022 0.0005028564 
  854000     481.5272   -118.59743    1585.2451    699.61365     1503.039    857.12488 0.0005511056 0.00057567358 0.00050157974 
  856000    494.15783   -118.10855   -3819.6087   -1046.9447   -287.30334   -286.76653 0.00055142944 0.00057586632 0.00050166738 
  858000    481.74543   -117.84891    2749.6308   -1464.9217    607.15582    327.80417 0.00055127874 0.0005744419 0.00050203403 
  860000    473.95765     -118.561   -1944.3106   -1914.5242   -1463.3952    925.11045 0.00054945483 0.0005761597 0.00050011487 
  862000    554.13945   -118.39647    821.75906   -1201.5692    108.68216   -1161.4438 0.00054864365 0.00057537493 0.00049936323 
  864000    458.18407   -117.72128    1843.7217    1547.5481   -412.27846   -1589.4555 0.0005480514 0.00057382358 0.00049853209 
  866000      461.356   -116.85728    -2241.152    468.10723    462.84967     832.7044 0.00054845985 0.00057357648 0.00049760356 
  868000    442.28026   -117.49493    2487.3715    -435.6423   -601.96662    3209.5618 0.00054772926 0.00057361077 0.00049911175 
  870000    557.38292   -117.60423   -3182.9355    -951.2965   -241.88261   -1729.1023 0.00054613131 0.00057382818 0.00049781986 
  872000    485.27225   -117.62067    1160.0189    417.65214    2095.1657    370.89188 0.00054556778 0.00057291355 0.00049670254 
  874000    528.59325   -118.00751    760.39264    1075.1408   -398.18611   -2882.4824 0.00054488175 0.00057118568 0.00049627553 
  876000     447.7175   -117.88766   -1976.1357    83.280365    2096.3947    -1814.153 0.00054442149 0.00057070234 0.00049757313 
  878000    510.49549   -115.89229    2124.8908    717.68394   -413.15274    982.24502 0.0005428644 0.00056974015 0.00049833331 
  880000    501.30408   -118.26575    -2699.284    1980.7438   -272.99546   -828.58609 0.00054176196  0.000571398 0.00049859729 
  882000     480.2863   -118.59339    751.39525    620.81073    249.82371   -893.44708 0.00054136576 0.00057384812 0.0005001042 
  884000    459.32422   -116.17279   -548.85786   -1163.1802   -3141.7318   -2601.7511 0.00054147781 0.00057376849 0.00050059207 
  886000    460.18623   -119.09063   -1733.6582   -1255.0685   -176.24862    1905.3078 0.00053974039 0.0005731772 0.0004992024 
  888000    464.07468   -117.71168    1487.5274   -47.989626    864.23739    1045.4588 0.00053827178 0.00057178017 0.0004984662 
  890000    505.79116   -118.47879   -2709.7104    87.569305    792.25632   -631.62619 0.00053715278 0.00057347144 0.00049740262 
  892000     497.5245   -117.64947    1899.8291    1455.1319   -311.35431    1528.0828 0.00053601191 0.00057291588 0.00049690483 
  894000    470.78549   -117.62866   -913.43699   -461.49446   -1625.6688   -792.31206 0.00053473456 0.00057222455 0.00049618679 
  896000    495.12905   -119.04625   -626.12187    861.70683   -686.57401   -2335.5264 0.00053371001 0.00057227167 0.00049498997 
  898000    501.59297   -117.25541    223.43201   -437.70919    16.502282   -1149.4779 0.0005350387 0.00057214206 0.00049440699 
  900000    512.30897   -118.31101   -3919.6993   -680.64867   -859.28445   -543.12692 0.00053181381 0.00057121551 0.00049339909 
  902000    560.18837   -118.44662    1238.1795   -1080.0371   -341.22481    1148.3632 0.00053104989 0.00056983017 0.00049241822 
  904000    453.41315   -116.49706   -908.99601   -2671.4884    1174.8729    908.19258 0.00052995436 0.00056899564 0.00049637819 
  906000    505.90492   -118.09983   -79.991655    2674.1663    2750.0438    74.835131 0.00052862805 0.00056904516 0.00049760634 
  908000    501.09701   -118.16992    1462.7686   -2824.4211   -868.16195    954.02871 0.00052861651 0.00057138747 0.00049646322 
  910000    482.50251   -116.26066    67.708489     444.2537    19.828509    1892.2751 0.00052872723 0.00057245247 0.0004956065 
  912000    471.14268    -117.4934    1766.5177   -1704.0665    1842.2588   -449.69309 0.00052743959 0.00057457181 0.00049494747 
  914000    459.87816   -117.78533   -1833.4355   -1282.4768    321.83837   -1352.0409 0.00052582007 0.00057353256 0.00049391425 
  916000    474.37192   -117.45268    774.16686   -1514.7517    301.58602   -722.82806 0.00052572573 0.00057507196 0.00049739557 
  918000    482.92092   -117.88918    393.34519   -2386.5676   -1187.0658   -2929.6547 0.00052434827 0.0005736026 0.00049775978 
[...]
 7716000      460.137   -116.19231    853.48795    1040.2238   -843.60434    511.44033 0.00047423927 0.00047534106 0.00045755922 
 7718000    463.84916   -117.59325    76.120728   -2201.8403    3930.4991   -216.71298 0.0004741391 0.00047530694 0.00045745244 
 7720000    478.26306   -117.76519    4722.5265    130.55412    2091.1554     2287.808 0.00047406285 0.00047527577 0.00045729704 
 7722000    526.37423   -117.98637   -4221.0169    -6023.574   -3484.8352    2898.4837 0.0004740664 0.0004753894 0.00045718694 
 7724000    507.50145   -116.40563    2816.0854    720.30393    143.52162   -128.69189 0.00047458013 0.00047518629 0.00045713174 
 7726000    443.12834   -117.98285   -5346.5196   -1894.6301   -900.56665    1404.5052 0.00047460499 0.00047503997 0.00045719471 
 7728000    492.11792   -118.01998    -2414.135   -5743.5661    5818.4358    1443.8546 0.00047441394 0.00047515492 0.00045719355 
 7730000    515.15907   -117.73063   -779.40158    312.44097    -2064.207   -2024.2002 0.00047426077 0.00047533392 0.00045718255 
 7732000    500.94678   -115.89018   -4676.9243    63.738971    -3565.521    20.467344 0.00047412614 0.00047536089 0.00045702571 
 7734000    482.73912   -117.41257    4813.3537    -1015.811     3729.565    1217.0616 0.00047395885 0.00047529792 0.00045687085 
 7736000    511.07216   -116.56479   -2473.0585     340.6421   -2146.6343    3107.0703 0.00047382386 0.00047543905 0.00045673672 
 7738000    477.61269   -117.41799    2935.5359    1588.0558    -2151.529   -1413.7874 0.00047364656 0.00047530577 0.00045671511 
 7740000    484.10722   -117.92817    1134.2894    1978.3575     2160.862   -1775.5544 0.00047376962 0.0004753962  0.000456558 
 7742000    511.64837   -118.26598   -3691.6377    3492.6859   -2453.7378   -252.26415 0.00047368039 0.00047628419 0.00045658938 
 7744000    533.35073   -116.38139     4813.365   -292.42389    1836.3779    1341.6525 0.00047342994 0.00047619612 0.00045648786 
 7746000    531.47641   -116.05554   -3340.1363    2747.4909    4458.7433   -959.04775  0.000473275 0.00047623326 0.00045639855 
 7748000    491.54401   -117.23116    3323.1002    2011.4463    -142.4488    1508.7882 0.0004733183 0.00047646724 0.00045638761 
 7750000    499.74467   -116.85919   -3136.5175    1897.0867    4190.2056   -463.24248 0.00047340323 0.00047627434 0.00045702767 
 7752000    589.35056   -116.93377   -2006.8227   -304.67501   -361.22582   -2487.2558 0.00047341429 0.00047630405 0.00045681891 
 7754000    518.12207   -118.75785    2485.2808    -1016.633   -3397.5919    -94.44845 0.00047340872 0.00047612211 0.00045676571 
 7756000    549.07135   -117.54067   -6546.9915    290.76215    1291.0793    2104.9241 0.00047319026 0.00047596852 0.00045664242 
 7758000    476.88712   -118.11741    2877.5377   -4502.1811    604.14136    2341.4133 0.00047318606 0.00047585441 0.00045651373 
 7760000    521.51542   -117.93491   -4957.0618     3634.659   -4125.8214    6486.1616 0.0004735012 0.00047571602 0.00045701296 
 7762000    442.16387   -117.09182   -1063.0303     1422.681    781.80057    40.203159 0.00047329643 0.00047575346 0.00045709681 
 7764000    504.81659   -116.44344    3558.3331   -4294.7824   -9026.7232   -6111.9135 0.00047320928 0.00047572361 0.0004573128 
 7766000     455.8772   -117.04067   -2840.7951    2249.8445   -1978.9806    1334.9888 0.00047311257 0.00047584978 0.00045760005 
 7768000    525.73948   -117.06046    6825.7503   -3729.7155   -533.92647   -352.16219 0.00047307108 0.0004757175 0.0004575362 
 7770000    549.82446   -118.55994   -2777.9116     509.0371   -1042.9253   -2894.5013 0.00047296492 0.00047578142 0.00045750976 
 7772000    542.00797   -117.88309    565.39501    1521.0173    985.74931    103.03616 0.0004726808 0.00047567732 0.00045744411 
 7774000    487.89144   -117.92252   -2006.1592   -3072.9207    581.92075   -4576.9078 0.00047254567 0.00047572442 0.00045746633 
 7776000    480.37604   -118.11562   -5184.4843   -1172.8938   -4509.4333   -3422.4739 0.00047253553 0.00047559737 0.00045734853 
 7778000    510.39392   -116.65649    3624.3528   -3117.9465    2228.7794     2136.039 0.0004725643 0.00047544947 0.00045722374 
 7780000    450.09819   -117.60215   -4974.1164    2153.6865    2426.9031    2151.5047 0.0004725001 0.0004753581 0.00045715522 
 7782000    504.36432   -117.77236    3886.2208   -3987.1839    1149.1136   -63.115045 0.00047256345 0.00047523393 0.00045711576 
 7784000     591.4018   -117.55452    -1196.202    1439.3101    -1680.487   -4368.1958 0.0004724485 0.00047510482 0.00045719259 
 7786000     515.9603   -117.87996      -3824.7    -1632.799   -3686.0179     3131.315 0.00047235231 0.00047498452 0.0004571475 
 7788000    466.76096   -116.89151    3857.4479    446.41053   -2121.4015   -916.50982 0.0004722062 0.00047484818  0.000457088 
 7790000    504.71493   -117.18723   -7821.3797   -3632.6617    2751.0738    3070.2202 0.00047223688 0.00047480071 0.00045701701 
 7792000    547.22687   -118.16256    1267.6311   -975.47169    -2170.413   -1302.5114 0.00047227415 0.00047489084 0.00045692605 
 7794000    463.74396   -118.54236   -1125.8844   -4354.5004    -969.1013    4215.8856 0.00047217474 0.00047529867 0.00045689059 
 7796000    555.93023   -116.92458   -2452.9291    6145.8057    -5302.172    3977.0528 0.00047219865 0.00047519571 0.00045682524 
 7798000    528.94417   -116.51135    4504.0584   -1210.7437     1756.528   -309.21434 0.00047219566 0.00047535821 0.00045665394 
 7800000    496.64006   -117.09774   -3937.5722    1578.6306   -1086.9986   -1551.1116 0.0004721012 0.00047530311 0.00045653992 
 7802000     455.9072   -117.72932    2647.7103    1338.5685     1142.332    -3273.603 0.00047202051 0.00047528355 0.00045651275 
 7804000    481.98178   -117.99655   -4333.1652    2729.4887    1869.6483    1002.8012 0.00047209849 0.00047553351 0.00045642725 
 7806000    496.44394   -116.96814   -347.03807   -688.44712   -2847.1664    2840.3758 0.0004719281 0.00047566415 0.00045641809 
 7808000    480.99618   -117.42046    57.345156   -2209.0193    -1787.837   -483.20834 0.00047190126 0.00047592001 0.00045632883 
 7810000    511.21238   -117.58129   -4485.0678   -1519.4518    977.90604   -1932.2491 0.00047199325 0.00047579989 0.00045629196 
 7812000    512.59253   -117.47571    6041.5999    1997.4071    -858.0706   -2760.1589 0.00047208086 0.0004756983 0.0004561129 
 7814000    473.41131   -116.11475   -4605.5745    9851.9706   -206.28276   -384.04127 0.00047202626 0.00047566043 0.00045643944 
 7816000    524.23219   -115.93002    2863.3035   -778.22654    573.82679    679.57887 0.00047187231 0.00047560562 0.0004564215 
 7818000    535.50931   -117.82044    91.116888    4332.8656    3132.9789    1194.2828 0.00047186148 0.00047575379 0.00045624907 
 7820000    436.43723   -117.02022   -5103.7833    4496.4008    1167.9658   -1688.1198 0.00047176569 0.00047587991 0.00045615719 
 7822000    508.11545   -117.95133    3425.2057    1907.0315    3185.1776    3480.9893 0.0004717882 0.00047570855 0.00045599417 
 7824000    509.24714   -117.13457   -3352.1494   -3845.2658    1010.1284    1509.9449 0.00047198296 0.00047564449 0.0004560979 
 7826000    486.07816   -117.94036    1838.5097    3177.6758    1899.2315   -159.94626 0.00047209979 0.00047560942 0.00045593612 
 7828000    501.15357   -116.94795    652.71292    -5453.563   -227.46213     53.10573 0.00047194269 0.00047552918 0.00045586022 
 7830000    555.25366   -117.34311   -1990.3177    1915.2083   -1166.5874   -3382.6557 0.00047187623 0.00047542366 0.00045575094 
 7832000    544.09056   -118.04467    2796.2373   -1847.2407    406.33146    1060.1076 0.00047175139 0.00047518917 0.00045565827 
 7834000    535.63782   -117.86105   -4794.4515     4199.972   -2208.7294   -2777.1163 0.00047166408 0.00047504608 0.00045624342 
 7836000    478.29657   -116.94748    2592.8323   -6524.5605     494.1456    1040.2762 0.00047187243 0.00047492807 0.00045603425 
 7838000    496.26398   -117.52853   -3549.7682   -1020.1725    1964.9831   -2886.6047 0.00047192065 0.00047495266 0.0004559021 
 7840000    510.00045   -117.75872   -3273.8257   -4068.8379    1581.4895     687.9672 0.00047180606 0.00047508586 0.00045573534 
 7842000    417.17549   -116.27592    3381.1093    3840.2822   -1720.6158   -4309.1587 0.00047171212 0.00047519083 0.00045576248 
 7844000    511.72113   -116.94022   -5268.9546   -194.85748    2796.8281   -3459.8562 0.00047178834 0.00047534072 0.00045568046 
 7846000    508.29168   -117.68465    5946.7496   -2234.7238   -1348.8268    322.26242 0.00047164904 0.0004753064 0.00045554687 
 7848000    487.53468   -118.25097   -3442.2919   -701.28839     717.3543    3540.9376  0.000471654 0.00047548649 0.00045548868 
 7850000    553.40402   -118.24646    -392.2449    -1647.412    1368.2289    2103.5978 0.00047168405 0.00047537234 0.00045541295 
 7852000    504.82166   -118.57366    276.12762    -2132.381    2613.0672   -3299.7885 0.00047144215 0.00047525141 0.00045533348 
 7854000    466.94036   -115.41203   -5323.0598   -2695.0247    5100.6681   -944.97965 0.00047170856 0.00047511442 0.00045537729 
 7856000    490.01855   -117.76161    2450.0873    319.27601    6422.8644    227.37384 0.00047162355 0.00047502152 0.00045528648 
 7858000    524.02516   -116.69521   -4760.6567   -2416.8897    242.58373   -6997.2495 0.00047152755 0.00047497512 0.00045522777 
 7860000    518.21813   -117.93878    3748.4416   -1969.8764   -3504.8935   -1281.2088 0.00047139939 0.00047501179 0.00045532341 
 7862000    515.16445   -118.93596    -464.6022    -717.1409   -3143.2218    5310.0854 0.0004715121 0.00047476829 0.00045555067 
 7864000     479.8935   -116.26276   -5492.5537   -2800.6738     -293.846   -2268.1007 0.00047142506 0.00047476262 0.00045552269 
 7866000    497.14565   -116.63389    5223.2801   -815.03412    1981.7496    3125.9856 0.00047122739 0.00047472329 0.00045545933 
 7868000    517.87832    -117.2086   -7945.9692   -2594.0385    1684.0632   -2278.1684 0.00047116649 0.00047465648 0.00045536818 
 7870000    502.15923    -118.0519    4088.9015   -1115.9139    562.68415   -595.47837 0.00047109596 0.00047457911 0.00045528204 
 7872000    496.81722   -117.19341     2242.666   -6245.5693    220.16126    993.77661 0.00047105204 0.00047508889 0.00045522721 
 7874000    451.75042   -116.51097   -2374.1841   -1140.5528   -7530.2733   -3009.7479 0.00047098857 0.00047498196 0.0004550894 
 7876000    483.92923   -117.36658    4637.6905   -3264.5602    129.70871   -858.82205 0.00047105633 0.00047526722 0.00045495849 
 7878000    502.93323   -117.71239   -6517.1411   -1015.1536     3188.105    1500.5226 0.00047128593 0.00047508236 0.00045483765 
 7880000    504.47813   -117.33079    1508.0499   -2005.7714   -358.32155    273.17916 0.00047178775 0.00047495165 0.00045471341 
 7882000    448.18802   -117.10703   -4517.6795    -1636.183    1176.7976    2522.3967 0.00047242132 0.00047523779 0.00045469313 
 7884000    497.74743   -117.49962    -269.4788   -653.80636   -2033.2481   -2117.7024 0.00047252915 0.00047537376 0.00045451301 
 7886000    497.94874   -116.96954    3847.3979    1929.4508    4969.4569    3090.0937 0.00047269503 0.00047523953 0.00045445846 
 7888000    528.62461   -118.00642   -4508.0555   -6593.8257   -1072.9273   -1823.7803 0.00047269363 0.00047520156 0.00045435664 
 7890000    525.24917   -117.79488    5936.9393   -852.51626    5448.8503   -1847.8224 0.00047257504 0.00047509764 0.00045427287 
 7892000    504.80354   -118.34303   -6298.8403   -1198.8833    434.56065   -1533.5399 0.0004724529 0.00047515226 0.00045455805 
 7894000    491.43836   -117.83789   -940.03623   -901.16079    3460.1514    1980.6193 0.00047234927 0.00047505099 0.00045482129 
 7896000    462.70906   -118.36622    1518.2071   -325.14284   -843.75833   -3099.6716 0.00047241163 0.00047525739 0.00045478951 
 7898000    470.23804     -117.153   -6081.2635    1206.0674   -2659.5594     3725.779 0.00047212867 0.00047516173 0.00045464534 
 7900000    471.53333   -117.51523    6214.9437    3048.6553      3863.23   -3620.1358 0.0004721036 0.00047507365 0.00045457455 
 7902000    490.46166   -118.83253   -5597.5351    2711.8232    -1449.703    -122.5278 0.00047208171 0.00047498739 0.00045450372 
 7904000    516.25553   -116.32806    2699.5791    861.23619   -682.92049    489.66087 0.00047262177 0.00047491015 0.00045447081 
 7906000    482.73728   -117.92522   -2081.6849   -2219.0864    4235.5953    1316.3796 0.00047271996 0.00047481233 0.00045439444 
 7908000    477.76649   -116.49421   -4144.3807    462.12396    -3503.138     1681.231 0.00047291257 0.00047476955 0.00045436123 
 7910000    519.02013   -118.39462    4874.4963   -1465.2619    3033.1851    3046.5286 0.00047285297 0.0004749502 0.0004546749 
 7912000    478.88642   -118.12613   -7414.7179   -229.96657     3738.453   -4630.7461 0.00047282917 0.00047493286 0.0004548483 
 7914000     509.2289   -116.94027    6014.4419    806.36255   -7510.7063    5798.7638 0.00047275175 0.00047492401 0.00045514894 
 7916000    495.58835   -117.39627    -2771.324   -2612.2378   -3379.1975    2771.5158 0.0004726947 0.00047488432 0.0004550081 
 7918000    529.15212   -115.93316   -1652.5308   -1667.0636    696.54234    1780.5898 0.00047275252 0.00047484466 0.00045484345 
 7920000    474.41964   -116.88471    4628.6629    5120.7866    108.00755   -2397.5899 0.00047267777 0.0004750884 0.00045503942 
 7922000    537.22615   -117.78311   -8139.3441    4518.5308   -1986.9135   -1857.4599 0.00047259356 0.00047513093 0.00045498635 
 7924000    527.19814   -117.37936    4507.5743   -372.33294    2654.6841    1196.5724 0.00047251351 0.00047528004 0.00045513597 
 7926000    552.94788    -117.7933   -5047.5428    1035.7903    2535.4608    3189.5901 0.00047243186 0.0004753761 0.00045501157 
 7928000    495.34403   -117.53766    -545.7972   -2191.1886   -163.61045    1887.1385 0.00047233774 0.00047518622 0.00045483683 
 7930000    478.11523   -116.08198    3321.5519   -1560.0658    -2557.188    6933.8488 0.00047236687 0.00047508566 0.00045492122 
 7932000    461.33704   -117.49051   -2442.9537   -368.14169   -733.52832    2847.6083 0.00047252887 0.00047497628 0.00045490723 
 7934000    507.84907    -117.2487    6021.2041    2846.8531   -609.50115    2750.8058 0.00047280902 0.00047484553 0.00045483466 
 7936000     572.6912   -117.26739   -4448.4735    4300.5592    3120.5058    60.398007 0.00047277874 0.00047471831 0.00045489216 
 7938000     491.3805   -117.31412     2137.328   -1587.7454   -1925.2088   -2532.4033 0.00047262913 0.00047463351 0.00045483419 
 7940000    486.78421   -118.00194   -3546.3492   -2184.1446    2.0016408    547.29004 0.00047239684 0.00047491678 0.00045476458 
 7942000    511.22533   -116.94954   -5065.9937    2298.2403   -5517.1627   -2924.4585 0.00047309172 0.00047484208 0.00045515093 
 7944000     472.7964   -118.03655    4498.3355    -4114.531    147.09478    722.52971 0.00047296058 0.00047487018 0.00045513027 
 7946000    469.21258   -117.94787   -6415.4833    153.24089    4011.8676    2999.2577 0.00047295417 0.00047507906 0.00045529303 
 7948000    538.09278   -116.99422     4827.264   -4489.5864    1863.9077    3723.3754 0.00047297176 0.00047483366 0.00045518699 
 7950000    509.40215   -117.42754   -335.89123   -2237.3341   -1015.7072   -1164.4947 0.00047279038 0.00047472053 0.00045508729 
 7952000    436.64074   -117.10874   -3401.9876    496.86685   -181.42152    1367.3435 0.00047271593 0.00047458881 0.00045500198 
 7954000    501.14562   -116.82914    2508.7273   -1240.6948   -2295.4231   -1478.3912 0.00047256929 0.0004745395 0.00045495853 
 7956000    479.21237   -117.92083   -6105.0557   -207.27161    -1342.017     6831.455 0.00047244866 0.00047444867 0.00045485193 
 7958000    526.04177   -118.32998     2684.458   -1686.7597    2194.1152   -2620.9661 0.00047234343 0.00047439484 0.00045499535 
 7960000    487.59272   -117.64569   -3127.8936    1529.8814   -1004.3528    2182.3585 0.00047216059 0.00047441819 0.00045519794 
 7962000    443.32098   -117.39303    1771.9963    1003.8816   -1835.3273    444.07527 0.00047206233 0.00047423661 0.00045500516 
 7964000    492.02578   -117.85507     2584.674    2578.4729    5166.7238    1514.1839 0.00047196362 0.00047417801 0.00045487212 
 7966000    508.99102     -117.095   -3887.9368    111.45237   -725.85381     2084.188 0.00047187244 0.00047422007 0.00045474871 
 7968000    566.39525   -117.53396    3223.0302    -2415.547    2805.7578   -3050.0224 0.00047179362 0.0004746968 0.00045478572 
 7970000    509.54653   -117.27244   -5825.9426   -3526.6965    6087.5701    8554.4618 0.00047179653 0.00047575727 0.00045483503 
 7972000    553.24093   -117.37535    1009.1293    1855.2449   -810.25826   -3384.8883 0.0004717251 0.00047596898 0.00045484662 
 7974000    443.01127   -117.73781    -362.1288   -1823.6938    916.08316    2315.5846 0.00047173696 0.00047596443 0.00045493141 
 7976000    492.10947   -117.56339   -3087.5163   -4182.8344   -2173.1605    444.32866 0.0004715823 0.00047599074 0.00045474172 
 7978000    510.07852   -117.92436    3809.1327   -2365.9466    4765.0097   -1102.0848 0.00047147443 0.00047595592 0.00045482686 
 7980000    469.07299   -117.19349   -5076.5373    1682.9042    -836.7746    3320.9169 0.00047165964 0.00047601655 0.00045495173 
 7982000    447.48534   -117.17451    1675.4805    772.36669   -4997.1651    -4963.739 0.00047178975 0.00047588952 0.00045494232 
 7984000    520.31298   -115.84235   -2450.7884   -1041.1765    2857.2258    4422.9257 0.0004718238 0.00047589435 0.00045491588 
 7986000    487.65313   -117.45408   -678.45966   -744.02114   -3101.4038   -950.85516 0.00047166717 0.00047581933 0.00045495351 
 7988000    545.26389   -117.91421    4105.7389   -4012.5777   -917.70008    583.42779 0.00047157856 0.00047566293 0.00045482082 
 7990000    520.89728   -117.36417   -6164.3235   -1337.5601    4393.0106    4995.9847 0.00047150257 0.00047553724 0.00045471303 
 7992000      484.129    -117.5212    4657.3859    1479.5548    2731.0208    3086.9351 0.00047188537 0.00047600826 0.00045460188 
 7994000    462.85678   -118.25766   -5316.1121    933.44483   -4061.5952   -4835.8743 0.00047188445 0.00047586298 0.00045443103 
 7996000    540.96927   -118.87964   -1478.3829    1717.9933    1704.1039    1185.3208 0.00047179884 0.00047576012 0.00045425413 
 7998000    515.85653   -117.22658    2094.9217   -3925.6338   -2207.5863   -315.66718 0.00047165619 0.00047561922 0.00045411934 
 8000000    470.03798   -117.14249   -7364.3527    2246.7241   -4600.8911   -4211.7307 0.00047154699 0.00047559204 0.00045402364 
Loop time of 7261.93 on 1 procs for 8000000 steps with 160 atoms

Performance: 95.181 ns/day, 0.252 hours/ns, 1101.636 timesteps/s
98.5% CPU use with 1 MPI tasks x no OpenMP threads

MPI task timing breakdown:
Section |  min time  |  avg time  |  max time  |%varavg| %total
---------------------------------------------------------------
Pair    | 5691.3     | 5691.3     | 5691.3     |   0.0 | 78.37
Bond    | 48.488     | 48.488     | 48.488     |   0.0 |  0.67
Kspace  | 1175.8     | 1175.8     | 1175.8     |   0.0 | 16.19
Neigh   | 126.34     | 126.34     | 126.34     |   0.0 |  1.74
Comm    | 124.48     | 124.48     | 124.48     |   0.0 |  1.71
Output  | 6.9827     | 6.9827     | 6.9827     |   0.0 |  0.10
Modify  | 60.112     | 60.112     | 60.112     |   0.0 |  0.83
Other   |            | 28.42      |            |       |  0.39

Nlocal:    160 ave 160 max 160 min
Histogram: 1 0 0 0 0 0 0 0 0 0
Nghost:    2978 ave 2978 max 2978 min
Histogram: 1 0 0 0 0 0 0 0 0 0
Neighs:    32250 ave 32250 max 32250 min
Histogram: 1 0 0 0 0 0 0 0 0 0

Total # of neighbors = 32250
Ave neighs/atom = 201.562
Ave special neighs/atom = 1.5
Neighbor list builds = 114563
Dangerous builds = 0
variable     ndens equal count(all)/vol
print        "average viscosity: $v [Pa.s] @ $T K, ${ndens} /A^3"
average viscosity: 0.000467054222984439 [Pa.s] @ 500 K, 0.0120475921115711 /A^3
Total wall time: 2:05:30
