ITEM: TIMESTEP
0
ITEM: NUMBER OF ATOMS
80
ITEM: BOX BOUNDS pp pp pp
-4.0000000000000000e+01 4.0000000000000000e+01
-4.0000000000000000e+01 4.0000000000000000e+01
-4.0000000000000000e+01 4.0000000000000000e+01
ITEM: ATOMS id mass type x y z 
78 67 2 -39.7606 -32.9289 -38.5958 
79 15 3 -38.5677 -30.9368 -39.9535 
80 29 4 39.2864 -33.8146 -35.8472 
60 67 2 18.0709 -15.2414 -33.552 
61 15 3 18.8192 -17.5833 -32.461 
62 29 4 15.7137 -13.6906 -34.6859 
30 67 2 27.8684 -15.3072 -37.487 
31 15 3 27.0469 -13.204 -38.9485 
32 29 4 30.2465 -16.5196 -36.0303 
15 86.8 1 -10.805 -0.25449 -37.2088 
40 15 3 -28.8016 18.875 -38.7411 
39 67 2 -31.0293 20.1598 -39.5295 
36 67 2 -28.4115 27.7147 -35.2537 
37 15 3 -27.6224 25.1594 -34.9669 
38 29 4 -28.6973 29.9993 -37.2402 
17 86.8 1 -5.49156 23.3027 -31.7598 
58 15 3 1.8091 22.1818 -39.0194 
4 86.8 1 -0.921555 31.4227 -38.5649 
9 86.8 1 29.0907 -33.235 -21.3637 
20 86.8 1 28.7539 -12.8915 -27.5041 
33 67 2 9.09742 -33.817 -10.2096 
35 29 4 6.61679 -34.2993 -11.9011 
6 86.8 1 23.8607 -12.786 -14.7544 
50 29 4 -4.69551 -0.787675 -18.2909 
48 67 2 -5.37584 1.57929 -16.5072 
49 15 3 -4.33667 3.64642 -15.1353 
3 86.8 1 -36.8171 14.2976 -19.4253 
34 15 3 11.5826 -34.6999 -9.68115 
24 67 2 2.73372 -12.2714 -3.20626 
25 15 3 5.07382 -12.3746 -4.5284 
26 29 4 0.486709 -13.9528 -2.03528 
71 29 4 1.81825 -11.2423 -4.2634 
51 67 2 16.1497 -11.0825 -4.00909 
52 15 3 18.8343 -11.2316 -3.93576 
53 29 4 13.5794 -12.6292 -3.51032 
70 15 3 -1.37928 -7.40213 -6.44892 
69 67 2 0.730328 -9.01645 -6.02669 
18 86.8 1 -27.1548 9.41929 -9.98672 
7 86.8 1 22.1578 5.48786 -5.50354 
2 86.8 1 7.29414 32.6479 -7.57523 
14 86.8 1 4.3055 -37.4315 9.39068 
1 86.8 1 -39.161 -19.1491 0.890539 
10 86.8 1 -19.8872 -4.86895 7.63172 
16 86.8 1 -8.07335 -8.75822 0.604183 
54 67 2 -16.0867 -30.8016 16.399 
56 29 4 -16.4474 -33.6371 17.4368 
55 15 3 -14.4377 -28.6766 16.3867 
66 67 2 -4.41535 -25.7301 10.722 
67 15 3 -6.19312 -23.7315 10.4389 
68 29 4 -1.77661 -26.5191 12.0111 
5 86.8 1 -0.514897 -13.8698 11.0873 
11 86.8 1 26.393 -12.3701 14.9609 
72 67 2 -17.765 7.00213 12.3528 
73 15 3 -15.2213 7.6051 11.7198 
74 29 4 -19.5763 4.84404 13.4971 
46 15 3 -20.9616 11.0674 10.8534 
45 67 2 -19.2047 11.3133 12.8751 
47 29 4 -17.1077 13.1354 14.112 
8 86.8 1 -17.9652 -21.7039 22.7922 
42 67 2 -1.18749 -27.4951 29.6473 
43 15 3 -3.64463 -27.1462 28.6103 
12 86.8 1 8.19587 -12.022 26.709 
22 15 3 -37.703 -3.17059 29.031 
63 67 2 10.5597 9.819 24.814 
65 29 4 10.8643 6.9113 23.9775 
64 15 3 11.8496 11.9336 25.8624 
19 86.8 1 -6.79422 -30.4281 34.6635 
44 29 4 0.514636 -29.3041 31.4017 
21 67 2 -38.1057 -3.11269 31.6898 
23 29 4 -39.7866 -4.24956 33.9546 
75 67 2 -1.49194 -2.96999 30.3131 
76 15 3 -3.43845 -1.12111 30.1472 
77 29 4 -0.739257 -5.65651 31.5228 
13 86.8 1 18.8545 7.20409 39.2077 
41 29 4 -33.8408 19.7765 39.377 
57 67 2 2.68142 23.1159 38.6138 
59 29 4 4.49549 22.5237 36.2462 
27 67 2 -14.0457 34.5657 35.9556 
28 15 3 -14.3124 35.0711 33.3272 
29 29 4 -14.9319 35.4259 38.7344 
ITEM: TIMESTEP
4
ITEM: NUMBER OF ATOMS
80
ITEM: BOX BOUNDS pp pp pp
-4.0000000000000000e+01 4.0000000000000000e+01
-4.0000000000000000e+01 4.0000000000000000e+01
-4.0000000000000000e+01 4.0000000000000000e+01
ITEM: ATOMS id mass type x y z 
78 67 2 -39.7597 -32.9278 -38.5984 
79 15 3 -38.5668 -30.9355 -39.9554 
80 29 4 39.2843 -33.8169 -35.8424 
60 67 2 18.0732 -15.243 -33.5506 
61 15 3 18.8208 -17.585 -32.4597 
62 29 4 15.7099 -13.687 -34.6881 
30 67 2 27.8663 -15.3057 -37.4882 
31 15 3 27.0454 -13.2024 -38.9498 
32 29 4 30.2505 -16.5224 -36.027 
15 86.8 1 -10.8049 -0.254445 -37.2091 
40 15 3 -28.7993 18.8743 -38.7402 
39 67 2 -31.0266 20.1596 -39.5284 
36 67 2 -28.4111 27.7125 -35.2515 
37 15 3 -27.6218 25.1574 -34.9653 
38 29 4 -28.6981 30.0041 -37.2431 
17 86.8 1 -5.49174 23.3023 -31.7602 
58 15 3 1.80758 22.1821 -39.0169 
4 86.8 1 -0.92146 31.4224 -38.5658 
9 86.8 1 29.0907 -33.2351 -21.3641 
20 86.8 1 28.7536 -12.8919 -27.5058 
33 67 2 9.10006 -33.8169 -10.2079 
35 29 4 6.61192 -34.2997 -11.9038 
6 86.8 1 23.8599 -12.7861 -14.754 
50 29 4 -4.69517 -0.792116 -18.2943 
48 67 2 -5.37643 1.58185 -16.5054 
49 15 3 -4.33668 3.64863 -15.1339 
3 86.8 1 -36.8172 14.298 -19.4259 
34 15 3 11.585 -34.7002 -9.68001 
24 67 2 2.7346 -12.269 -3.20904 
25 15 3 5.07555 -12.3735 -4.52922 
26 29 4 0.481982 -13.9547 -2.03267 
71 29 4 1.82169 -11.2471 -4.25943 
51 67 2 16.1529 -11.081 -4.0096 
52 15 3 18.8372 -11.2308 -3.93611 
53 29 4 13.5747 -12.6313 -3.50962 
70 15 3 -1.38079 -7.40055 -6.4496 
69 67 2 0.728963 -9.01475 -6.02762 
18 86.8 1 -27.1543 9.41933 -9.98643 
7 86.8 1 22.1573 5.48773 -5.50339 
2 86.8 1 7.29406 32.6483 -7.57532 
14 86.8 1 4.30511 -37.4311 9.39085 
1 86.8 1 -39.1609 -19.1493 0.890648 
10 86.8 1 -19.8872 -4.86807 7.63231 
16 86.8 1 -8.072 -8.75834 0.603125 
54 67 2 -16.0863 -30.7985 16.3982 
56 29 4 -16.4488 -33.6422 17.4383 
55 15 3 -14.437 -28.674 16.3863 
66 67 2 -4.41782 -25.7289 10.7207 
67 15 3 -6.19507 -23.7301 10.4381 
68 29 4 -1.77169 -26.5212 12.0131 
5 86.8 1 -0.51482 -13.8703 11.0869 
11 86.8 1 26.3929 -12.3701 14.9612 
72 67 2 -17.7627 7.00302 12.3513 
73 15 3 -15.219 7.60558 11.7188 
74 29 4 -19.5802 4.83975 13.499 
46 15 3 -20.9638 11.0668 10.8516 
45 67 2 -19.2074 11.3124 12.8738 
47 29 4 -17.1038 13.1386 14.1147 
8 86.8 1 -17.965 -21.7046 22.792 
42 67 2 -1.18963 -27.4935 29.6459 
43 15 3 -3.64682 -27.1452 28.6093 
12 86.8 1 8.19556 -12.0217 26.7095 
22 15 3 -37.7019 -3.17006 29.0286 
63 67 2 10.5597 9.82188 24.8149 
65 29 4 10.8642 6.90589 23.9757 
64 15 3 11.8501 11.936 25.8634 
19 86.8 1 -6.79351 -30.4279 34.6625 
44 29 4 0.518192 -29.307 31.405 
21 67 2 -38.1042 -3.11169 31.6873 
23 29 4 -39.7893 -4.25119 33.9593 
75 67 2 -1.49285 -2.96744 30.312 
76 15 3 -3.43964 -1.11907 30.1466 
77 29 4 -0.737055 -5.66155 31.5247 
13 86.8 1 18.8543 7.20412 39.2074 
41 29 4 -33.8463 19.7764 39.375 
57 67 2 2.67953 23.1166 38.6166 
59 29 4 4.49845 22.5236 36.2418 
27 67 2 -14.0447 34.5651 35.9528 
28 15 3 -14.3118 35.0709 33.3247 
29 29 4 -14.9328 35.4269 38.74 
ITEM: TIMESTEP
0
ITEM: NUMBER OF ATOMS
80
ITEM: BOX BOUNDS pp pp pp
-4.0000000000000000e+01 4.0000000000000000e+01
-4.0000000000000000e+01 4.0000000000000000e+01
-4.0000000000000000e+01 4.0000000000000000e+01
ITEM: ATOMS id mass type x y z 
78 67 2 -39.7597 -32.9278 -38.5984 
79 15 3 -38.5668 -30.9355 -39.9554 
80 29 4 39.2843 -33.8169 -35.8424 
60 67 2 18.0732 -15.243 -33.5506 
61 15 3 18.8208 -17.585 -32.4597 
62 29 4 15.7099 -13.687 -34.6881 
30 67 2 27.8663 -15.3057 -37.4882 
31 15 3 27.0454 -13.2024 -38.9498 
32 29 4 30.2505 -16.5224 -36.027 
15 86.8 1 -10.8049 -0.254445 -37.2091 
40 15 3 -28.7993 18.8743 -38.7402 
39 67 2 -31.0266 20.1596 -39.5284 
36 67 2 -28.4111 27.7125 -35.2515 
37 15 3 -27.6218 25.1574 -34.9653 
17 86.8 1 -5.49174 23.3023 -31.7602 
58 15 3 1.80758 22.1821 -39.0169 
38 29 4 -28.6981 30.0041 -37.2431 
4 86.8 1 -0.92146 31.4224 -38.5658 
9 86.8 1 29.0907 -33.2351 -21.3641 
20 86.8 1 28.7536 -12.8919 -27.5058 
33 67 2 9.10006 -33.8169 -10.2079 
35 29 4 6.61192 -34.2997 -11.9038 
6 86.8 1 23.8599 -12.7861 -14.754 
50 29 4 -4.69517 -0.792116 -18.2943 
48 67 2 -5.37643 1.58185 -16.5054 
49 15 3 -4.33668 3.64863 -15.1339 
3 86.8 1 -36.8172 14.298 -19.4259 
34 15 3 11.585 -34.7002 -9.68001 
24 67 2 2.7346 -12.269 -3.20904 
25 15 3 5.07555 -12.3735 -4.52922 
26 29 4 0.481982 -13.9547 -2.03267 
71 29 4 1.82169 -11.2471 -4.25943 
51 67 2 16.1529 -11.081 -4.0096 
52 15 3 18.8372 -11.2308 -3.93611 
53 29 4 13.5747 -12.6313 -3.50962 
70 15 3 -1.38079 -7.40055 -6.4496 
69 67 2 0.728963 -9.01475 -6.02762 
18 86.8 1 -27.1543 9.41933 -9.98643 
7 86.8 1 22.1573 5.48773 -5.50339 
2 86.8 1 7.29406 32.6483 -7.57532 
14 86.8 1 4.30511 -37.4311 9.39085 
1 86.8 1 -39.1609 -19.1493 0.890648 
10 86.8 1 -19.8872 -4.86807 7.63231 
16 86.8 1 -8.072 -8.75834 0.603125 
54 67 2 -16.0863 -30.7985 16.3982 
56 29 4 -16.4488 -33.6422 17.4383 
55 15 3 -14.437 -28.674 16.3863 
66 67 2 -4.41782 -25.7289 10.7207 
67 15 3 -6.19507 -23.7301 10.4381 
68 29 4 -1.77169 -26.5212 12.0131 
5 86.8 1 -0.51482 -13.8703 11.0869 
11 86.8 1 26.3929 -12.3701 14.9612 
72 67 2 -17.7627 7.00302 12.3513 
73 15 3 -15.219 7.60558 11.7188 
74 29 4 -19.5802 4.83975 13.499 
46 15 3 -20.9638 11.0668 10.8516 
45 67 2 -19.2074 11.3124 12.8738 
47 29 4 -17.1038 13.1386 14.1147 
8 86.8 1 -17.965 -21.7046 22.792 
42 67 2 -1.18963 -27.4935 29.6459 
43 15 3 -3.64682 -27.1452 28.6093 
12 86.8 1 8.19556 -12.0217 26.7095 
22 15 3 -37.7019 -3.17006 29.0286 
63 67 2 10.5597 9.82188 24.8149 
65 29 4 10.8642 6.90589 23.9757 
64 15 3 11.8501 11.936 25.8634 
19 86.8 1 -6.79351 -30.4279 34.6625 
44 29 4 0.518192 -29.307 31.405 
21 67 2 -38.1042 -3.11169 31.6873 
23 29 4 -39.7893 -4.25119 33.9593 
75 67 2 -1.49285 -2.96744 30.312 
76 15 3 -3.43964 -1.11907 30.1466 
77 29 4 -0.737055 -5.66155 31.5247 
13 86.8 1 18.8543 7.20412 39.2074 
41 29 4 -33.8463 19.7764 39.375 
57 67 2 2.67953 23.1166 38.6166 
59 29 4 4.49845 22.5236 36.2418 
27 67 2 -14.0447 34.5651 35.9528 
28 15 3 -14.3118 35.0709 33.3247 
29 29 4 -14.9328 35.4269 38.74 
ITEM: TIMESTEP
2000
ITEM: NUMBER OF ATOMS
80
ITEM: BOX BOUNDS pp pp pp
-3.9810825689160261e+01 3.9810825689160261e+01
-3.9810825689160261e+01 3.9810825689160261e+01
-3.9810825689160261e+01 3.9810825689160261e+01
ITEM: ATOMS id mass type x y z 
78 67 2 -39.6051 -32.2852 -38.5042 
79 15 3 -37.6952 -30.7457 -39.6186 
80 29 4 39.0311 -33.5297 -35.8896 
60 67 2 18.0728 -15.1506 -33.5187 
61 15 3 19.1027 -17.3834 -32.4159 
62 29 4 15.5029 -13.8647 -34.535 
30 67 2 27.7562 -15.1889 -36.8419 
31 15 3 26.8689 -13.4893 -38.7323 
32 29 4 30.2263 -16.6089 -35.7767 
15 86.8 1 -11.195 -0.248135 -36.8023 
40 15 3 -28.817 18.8809 -38.7255 
39 67 2 -30.9898 20.236 -39.5638 
36 67 2 -28.3504 27.362 -35.3429 
37 15 3 -26.883 25.1747 -34.7815 
17 86.8 1 -5.71743 23.1015 -31.3723 
58 15 3 2.3986 22.3185 -38.7768 
38 29 4 -28.2962 30.0845 -36.7659 
4 86.8 1 -0.718285 31.4003 -38.4722 
9 86.8 1 28.8626 -33.2769 -21.1614 
20 86.8 1 28.3805 -13.0056 -27.4339 
33 67 2 9.18628 -33.8287 -10.1697 
35 29 4 6.7413 -34.3799 -11.9102 
6 86.8 1 23.9709 -12.6916 -14.5701 
50 29 4 -4.77262 -0.765013 -18.1709 
48 67 2 -5.26945 1.74826 -16.5162 
49 15 3 -4.31453 3.22029 -14.466 
3 86.8 1 -36.8221 14.195 -19.3595 
34 15 3 11.5614 -34.8197 -9.38948 
24 67 2 2.23703 -12.1479 -3.43888 
25 15 3 4.54546 -11.779 -4.77966 
26 29 4 0.695 -14.0133 -1.61602 
71 29 4 2.09523 -11.3582 -3.92037 
51 67 2 15.8313 -10.9507 -3.85631 
52 15 3 18.4919 -11.2948 -4.18416 
53 29 4 13.1587 -12.3427 -3.34356 
70 15 3 -1.12188 -7.39477 -5.65602 
69 67 2 0.849909 -9.2056 -5.5731 
18 86.8 1 -26.9483 9.56923 -9.81369 
7 86.8 1 22.3931 5.56421 -5.65913 
2 86.8 1 7.20439 32.9736 -7.5459 
14 86.8 1 4.192 -37.6622 9.54376 
67 15 3 -5.89574 -23.6246 9.7444 
1 86.8 1 -38.9017 -19.0259 1.06311 
10 86.8 1 -19.8574 -5.1046 7.7723 
16 86.8 1 -7.85894 -8.75017 0.374464 
54 67 2 -15.9142 -30.646 16.1633 
56 29 4 -16.158 -33.4258 17.3835 
55 15 3 -15.2782 -28.0792 16.6733 
66 67 2 -4.3593 -25.6463 10.6518 
68 29 4 -1.761 -26.4005 12.0813 
5 86.8 1 -0.524975 -14.232 10.9937 
11 86.8 1 26.1191 -12.0701 15.2179 
72 67 2 -17.9386 6.73622 12.2099 
73 15 3 -15.3672 7.23299 11.5789 
74 29 4 -19.8181 5.1672 14.028 
46 15 3 -19.7388 10.7494 10.1362 
45 67 2 -19.0276 11.5147 12.6172 
47 29 4 -17.0429 13.2007 14.2242 
8 86.8 1 -17.5902 -21.9924 22.2543 
42 67 2 -1.02994 -27.0649 29.4417 
43 15 3 -3.255 -26.7003 27.9597 
12 86.8 1 8.39749 -11.5322 26.7071 
22 15 3 -37.9829 -2.58366 28.9347 
76 15 3 -3.67915 -1.35252 29.632 
63 67 2 10.7662 9.98462 24.3936 
65 29 4 10.8945 7.02419 23.6748 
64 15 3 11.2295 11.782 26.3551 
19 86.8 1 -6.76821 -30.2409 34.5762 
44 29 4 0.699525 -29.1532 30.8494 
21 67 2 -37.9927 -3.32469 31.5338 
23 29 4 -39.7549 -4.02752 33.9264 
75 67 2 -1.48714 -2.75802 30.3391 
77 29 4 -0.477397 -5.55505 31.0068 
13 86.8 1 18.4762 6.96519 38.7964 
41 29 4 -33.8303 19.9268 38.9848 
57 67 2 2.76888 22.8492 38.2289 
59 29 4 4.72731 22.6125 35.9087 
27 67 2 -14.005 34.1315 35.6472 
28 15 3 -14.7273 34.2913 33.0542 
29 29 4 -14.7962 34.8471 38.5129 
ITEM: TIMESTEP
4000
ITEM: NUMBER OF ATOMS
80
ITEM: BOX BOUNDS pp pp pp
-3.7635852426938690e+01 3.7635852426938690e+01
-3.7635852426938690e+01 3.7635852426938690e+01
-3.7635852426938690e+01 3.7635852426938690e+01
ITEM: ATOMS id mass type x y z 
78 67 2 -37.415 -30.0753 -36.4276 
79 15 3 -35.1727 -29.0453 -37.4909 
80 29 4 36.7352 -31.6534 -34.0724 
61 15 3 18.421 -16.384 -30.5802 
62 29 4 14.4623 -13.2478 -32.6751 
60 67 2 17.1754 -14.3063 -31.7582 
30 67 2 26.3074 -14.2707 -34.45 
31 15 3 25.1967 -12.964 -36.529 
32 29 4 28.7327 -15.9141 -33.572 
15 86.8 1 -10.9383 -0.226619 -34.6236 
40 15 3 -27.2865 17.7821 -36.7022 
39 67 2 -29.3861 19.216 -37.5829 
36 67 2 -26.6759 25.7339 -33.6663 
37 15 3 -25.2335 23.8295 -32.4594 
17 86.8 1 -5.62944 21.7396 -29.4889 
58 15 3 2.51925 21.5103 -36.5141 
38 29 4 -26.7379 28.6816 -34.4072 
4 86.8 1 -0.50728 29.7605 -36.5074 
9 86.8 1 27.2104 -31.6289 -19.9515 
20 86.8 1 26.6064 -12.4715 -26.1205 
50 29 4 -4.68732 -0.756217 -17.2815 
3 86.8 1 -34.9595 13.4167 -18.3728 
33 67 2 8.8279 -32.1611 -9.60717 
35 29 4 6.39875 -32.7392 -11.366 
34 15 3 11.0742 -33.221 -8.58597 
6 86.8 1 22.7813 -11.9768 -13.6485 
48 67 2 -4.85018 1.80864 -15.6413 
49 15 3 -4.30422 2.89787 -13.2354 
7 86.8 1 21.4179 5.33629 -5.48862 
18 86.8 1 -25.3699 9.21056 -9.15001 
2 86.8 1 6.76013 31.6051 -7.14813 
1 86.8 1 -36.7059 -17.9731 1.16022 
16 86.8 1 -7.16904 -8.30841 0.0834776 
24 67 2 1.66526 -11.5134 -3.16015 
25 15 3 3.70825 -10.4046 -4.55671 
26 29 4 0.867387 -13.5334 -1.03673 
71 29 4 2.22723 -11.1629 -3.90925 
70 15 3 -1.13219 -6.92488 -4.64238 
69 67 2 0.864193 -8.67909 -4.99307 
51 67 2 14.8694 -10.2559 -3.54977 
53 29 4 12.1571 -11.5338 -3.01028 
52 15 3 17.4331 -10.7543 -4.2305 
54 67 2 -14.9294 -28.8241 15.2789 
14 86.8 1 3.85717 -35.9168 9.19977 
67 15 3 -5.32275 -22.2651 8.67272 
55 15 3 -15.4228 -26.2313 15.816 
66 67 2 -4.09472 -24.2321 10.0381 
68 29 4 -1.56101 -24.9897 11.5548 
5 86.8 1 -0.501681 -13.8501 10.3286 
11 86.8 1 24.5631 -11.2054 14.6796 
10 86.8 1 -18.8173 -4.9736 7.53738 
74 29 4 -19.0205 5.05977 13.7093 
72 67 2 -17.1497 5.99931 11.4822 
46 15 3 -17.9676 10.1435 9.17626 
45 67 2 -17.9252 11.2189 11.6343 
47 29 4 -16.1666 12.6355 13.6832 
73 15 3 -14.5679 6.25271 10.757 
56 29 4 -15.1639 -31.6673 16.3779 
8 86.8 1 -16.3678 -21.179 20.6544 
43 15 3 -2.90738 -24.8515 26.0745 
12 86.8 1 8.10998 -10.525 25.3801 
63 67 2 10.4822 9.58591 22.9823 
65 29 4 10.3151 6.69415 22.0276 
64 15 3 10.0062 11.2279 25.071 
19 86.8 1 -6.35579 -28.5414 32.6861 
44 29 4 0.865594 -27.581 28.9322 
42 67 2 -0.906858 -25.3751 27.7998 
22 15 3 -35.9878 -1.97734 27.3951 
21 67 2 -36.0795 -3.32523 29.7326 
23 29 4 37.6286 -3.67345 32.3253 
76 15 3 -3.58019 -1.24483 27.7032 
75 67 2 -1.48949 -2.52891 28.8248 
77 29 4 -0.0695488 -5.22096 29.03 
13 86.8 1 17.2149 6.41893 36.4615 
41 29 4 -32.2469 19.0241 36.6454 
57 67 2 2.71498 21.4741 36.0694 
59 29 4 4.67575 21.604 33.7291 
27 67 2 -13.2246 32.049 33.576 
28 15 3 -14.2342 31.9354 31.085 
29 29 4 -13.891 32.6339 36.4929 
ITEM: TIMESTEP
6000
ITEM: NUMBER OF ATOMS
80
ITEM: BOX BOUNDS pp pp pp
-3.3610835489974889e+01 3.3610835489974889e+01
-3.3610835489974889e+01 3.3610835489974889e+01
-3.3610835489974889e+01 3.3610835489974889e+01
ITEM: ATOMS id mass type x y z 
78 67 2 -33.3555 -26.4655 -32.5318 
79 15 3 -31.0132 -25.8058 33.565 
80 29 4 32.5449 -28.2771 -30.4665 
61 15 3 16.8399 -14.6344 -27.0611 
62 29 4 12.6449 -11.8894 -29.226 
60 67 2 15.4389 -12.7608 -28.3834 
30 67 2 23.575 -12.6381 -30.4193 
31 15 3 22.2474 -11.6136 -32.5181 
32 29 4 25.8844 -14.4374 -29.5842 
15 86.8 1 -10.0642 -0.191262 -30.8007 
40 15 3 -24.3052 15.6532 -32.8026 
36 67 2 -23.5579 22.9324 -30.1691 
37 15 3 -22.6078 21.0539 -28.5211 
17 86.8 1 -5.2396 19.3062 -26.2198 
58 15 3 2.18642 19.6994 -32.3686 
38 29 4 -24.0504 25.9292 -30.5015 
4 86.8 1 -0.296077 26.6038 -32.7882 
9 86.8 1 24.2352 -28.3982 -17.8049 
20 86.8 1 23.535 -11.3296 -23.6498 
50 29 4 -4.37765 -0.757989 -15.6682 
3 86.8 1 -31.3496 12.0078 -16.524 
33 67 2 8.04389 -28.9209 -8.55199 
35 29 4 5.61828 -29.4881 -10.3114 
34 15 3 10.1497 -30.0214 -7.31799 
6 86.8 1 20.3771 -10.6842 -12.0464 
48 67 2 -4.21444 1.75546 -13.9565 
49 15 3 -4.11374 2.69534 -11.4345 
7 86.8 1 19.3041 4.82221 -5.00787 
18 86.8 1 -22.5183 8.37098 -8.03454 
2 86.8 1 5.99009 28.6442 -6.40846 
1 86.8 1 -32.7093 -16.0545 1.18058 
16 86.8 1 -6.03107 -7.46017 -0.256848 
24 67 2 1.22656 -10.4878 -2.73839 
25 15 3 3.1182 -9.3432 -4.27309 
26 29 4 0.850031 -12.3786 -0.353336 
71 29 4 1.94751 -10.1769 -3.40088 
70 15 3 -1.46157 -5.90122 -3.69247 
69 67 2 0.654559 -7.48113 -4.17103 
51 67 2 13.3195 -9.04942 -3.10462 
53 29 4 10.5824 -10.2416 -2.52148 
52 15 3 15.7598 -9.6207 -4.09534 
54 67 2 -13.3034 -25.4789 13.765 
14 86.8 1 3.32237 -32.3171 8.38562 
55 15 3 -14.5511 -23.1166 14.0308 
67 15 3 -4.58743 -19.7025 7.24411 
66 67 2 -3.63529 -21.5737 8.91716 
68 29 4 -1.16691 -22.4033 10.4958 
5 86.8 1 -0.45114 -12.7598 9.12888 
11 86.8 1 21.8197 -9.82382 13.3864 
10 86.8 1 -16.8305 -4.49405 6.94279 
74 29 4 -17.2698 4.52169 12.6231 
72 67 2 -15.4696 4.88498 10.1964 
46 15 3 -15.6602 9.30427 7.646 
45 67 2 -15.9668 10.385 10.0756 
47 29 4 -14.4785 11.5208 12.4839 
73 15 3 -12.9258 4.72889 9.35381 
56 29 4 -13.4175 -28.4296 14.5071 
8 86.8 1 -14.3686 -19.3344 18.0679 
43 15 3 -2.66199 -21.7773 23.0119 
12 86.8 1 7.35584 -9.05162 22.8124 
63 67 2 9.60535 8.65271 20.56 
65 29 4 9.29258 5.94124 19.2145 
64 15 3 8.55593 10.3169 22.4017 
19 86.8 1 -5.58833 -25.4357 29.123 
44 29 4 1.00144 -24.7475 25.7577 
42 67 2 -0.80106 -22.4777 24.8217 
22 15 3 -32.0198 -1.45152 24.3413 
21 67 2 -32.4192 -3.08286 26.4502 
76 15 3 -3.35018 -0.897645 24.5414 
75 67 2 -1.42017 -2.25742 25.8383 
77 29 4 0.394492 -4.70006 25.7377 
23 29 4 33.5614 -3.24796 29.2224 
13 86.8 1 15.1423 5.59512 32.3445 
39 67 2 -26.319 17.1763 33.5065 
41 29 4 -29.194 17.1378 32.4973 
57 67 2 2.52854 19.1123 32.2525 
59 29 4 4.34584 19.5272 29.8462 
27 67 2 -11.7433 28.4388 29.8661 
28 15 3 -12.9241 28.13 27.4754 
29 29 4 -12.2786 28.9165 32.8269 
ITEM: TIMESTEP
8000
ITEM: NUMBER OF ATOMS
80
ITEM: BOX BOUNDS pp pp pp
-2.8604714174861979e+01 2.8604714174861979e+01
-2.8604714174861979e+01 2.8604714174861979e+01
-2.8604714174861979e+01 2.8604714174861979e+01
ITEM: ATOMS id mass type x y z 
78 67 2 -28.3305 -22.2029 -27.68 
80 29 4 27.373 -24.1283 -25.8477 
61 15 3 14.7391 -12.4788 -22.5917 
62 29 4 10.411 -10.1045 -24.9372 
60 67 2 13.2568 -10.8454 -24.1256 
31 15 3 18.6904 -9.75014 -27.6413 
30 67 2 20.1244 -10.6226 -25.545 
32 29 4 22.3387 -12.5259 -24.6706 
20 86.8 1 19.8096 -9.8461 -20.5857 
15 86.8 1 -8.78874 -0.149183 -26.1445 
40 15 3 -20.5321 12.9456 -27.8772 
37 15 3 -19.295 17.5409 -23.8689 
17 86.8 1 -4.6483 16.3253 -22.2592 
58 15 3 1.54219 17.2606 -27.2088 
36 67 2 -19.7755 19.5244 -25.6049 
38 29 4 -20.6878 22.4354 -25.8722 
4 86.8 1 -0.115354 22.6051 -28.1207 
9 86.8 1 20.5743 -24.2947 -15.1796 
50 29 4 -3.90904 -0.79252 -13.659 
6 86.8 1 17.2891 -9.09203 -10.1018 
48 67 2 -3.50569 1.63559 -11.8565 
3 86.8 1 -26.7813 10.2704 -14.2165 
33 67 2 7.00969 -24.8175 -7.22805 
35 29 4 4.5718 -25.3552 -8.9862 
34 15 3 8.98882 -25.964 -5.83104 
16 86.8 1 -4.64081 -6.38527 -0.60523 
70 15 3 -1.84528 -4.53796 -2.77813 
24 67 2 0.913555 -9.10565 -2.16272 
25 15 3 2.70969 -7.81379 -3.70763 
71 29 4 1.38604 -8.97587 -3.02755 
69 67 2 0.272239 -6.12774 -3.23246 
53 29 4 8.74491 -8.71686 -1.95449 
51 67 2 11.5036 -7.59654 -2.61835 
52 15 3 13.8447 -8.12821 -3.83957 
18 86.8 1 -19.0025 7.24392 -6.69789 
49 15 3 -3.75665 2.56608 -9.34429 
7 86.8 1 16.528 4.1407 -4.33062 
2 86.8 1 5.06087 24.7695 -5.49146 
68 29 4 -0.673999 -19.2116 9.16627 
14 86.8 1 2.69703 -27.6638 7.29127 
1 86.8 1 -27.7692 -13.6824 1.13148 
67 15 3 -3.87847 -16.4406 5.71389 
66 67 2 -3.0623 -18.2484 7.52654 
5 86.8 1 -0.3893 -11.2311 7.64289 
26 29 4 0.653731 -10.8452 0.336445 
10 86.8 1 -14.3247 -3.77632 6.12961 
72 67 2 -13.2743 3.64531 8.59933 
46 15 3 -13.0982 8.3116 5.79039 
45 67 2 -13.5941 9.18883 8.27458 
73 15 3 -10.8541 2.98713 7.6393 
54 67 2 -11.3656 -21.3589 11.8629 
55 15 3 -12.9004 -19.1647 12.0594 
56 29 4 -11.2925 -24.3822 12.2543 
8 86.8 1 -12.0128 -16.9064 15.0007 
11 86.8 1 18.4739 -8.20853 11.6366 
74 29 4 -15.0177 3.70534 11.1003 
63 67 2 8.3641 7.43006 17.5587 
65 29 4 8.04096 4.89643 15.8925 
47 29 4 -12.31 10.0886 10.898 
79 15 3 -25.9828 -21.7244 28.321 
19 86.8 1 -4.63098 -21.5867 24.6584 
44 29 4 1.08464 -21.2881 21.9711 
42 67 2 -0.726874 -18.9683 21.1619 
43 15 3 -2.55318 -18.1404 19.3713 
22 15 3 -27.0837 -1.03043 20.3896 
21 67 2 -27.7603 -2.68505 22.4044 
76 15 3 -3.11186 -0.495097 20.7492 
75 67 2 -1.2718 -1.95265 22.0647 
12 86.8 1 6.30369 -7.40045 19.5678 
77 29 4 0.827997 -4.1461 21.7793 
23 29 4 28.4853 -2.81039 25.2955 
64 15 3 7.09358 9.16823 19.1746 
13 86.8 1 12.6871 4.66132 27.3192 
39 67 2 -22.4558 14.5709 28.4004 
41 29 4 -25.3449 14.6966 27.4232 
57 67 2 2.22887 16.2896 27.5912 
59 29 4 3.86071 16.8257 25.0723 
27 67 2 -9.87909 24.0669 25.3126 
28 15 3 -11.1316 23.6513 22.9733 
29 29 4 -10.2897 24.4711 28.3113 
ITEM: TIMESTEP
10000
ITEM: NUMBER OF ATOMS
80
ITEM: BOX BOUNDS pp pp pp
-2.3585895556583125e+01 2.3585895556583125e+01
-2.3585895556583125e+01 2.3585895556583125e+01
-2.3585895556583125e+01 2.3585895556583125e+01
ITEM: ATOMS id mass type x y z 
78 67 2 -23.3351 -18.069 -22.8244 
80 29 4 22.2464 -20.0314 -21.1203 
61 15 3 12.5658 -10.2733 -18.0393 
62 29 4 8.2011 -8.26822 -20.629 
60 67 2 11.0657 -8.92762 -19.82 
31 15 3 15.205 -7.77636 -22.8561 
30 67 2 16.6116 -8.59793 -20.7159 
32 29 4 18.7537 -10.5582 -19.7812 
20 86.8 1 16.1442 -8.32209 -17.5361 
15 86.8 1 -7.37553 -0.110442 -21.5442 
40 15 3 -16.7141 10.1967 -22.8798 
17 86.8 1 -3.97499 13.3808 -18.3634 
37 15 3 -15.8212 14.0839 -19.2172 
36 67 2 -16.1107 16.107 -20.9619 
38 29 4 -17.2452 18.9088 -21.3126 
58 15 3 0.81489 14.7292 -22.0409 
4 86.8 1 0.00765057 18.5292 -23.3926 
35 29 4 3.47386 -21.145 -7.64304 
33 67 2 5.92104 -20.6489 -5.89481 
9 86.8 1 16.9337 -20.1178 -12.576 
6 86.8 1 14.1303 -7.5032 -8.18985 
50 29 4 -3.38558 -0.864814 -11.6242 
48 67 2 -2.84296 1.4881 -9.76498 
49 15 3 -3.32868 2.46969 -7.3095 
3 86.8 1 -22.1411 8.53532 -11.8923 
18 86.8 1 -15.5047 6.05271 -5.39619 
34 15 3 7.7992 -21.8557 -4.3963 
1 86.8 1 -22.839 -11.3127 1.02595 
16 86.8 1 -3.21266 -5.24748 -0.923147 
24 67 2 0.627906 -7.65423 -1.6431 
25 15 3 2.36515 -6.44251 -3.29503 
71 29 4 1.07535 -7.59157 -2.54441 
69 67 2 -0.21235 -4.82982 -2.39573 
67 15 3 -3.23756 -13.0511 4.37015 
26 29 4 0.339418 -9.27013 0.963737 
53 29 4 7.00395 -7.26088 -1.42435 
51 67 2 9.74332 -6.1547 -2.17362 
52 15 3 11.9942 -6.6464 -3.56113 
70 15 3 -2.44228 -3.50901 -1.66381 
7 86.8 1 13.6445 3.4281 -3.59543 
46 15 3 -10.6726 7.21596 4.01881 
2 86.8 1 4.15701 20.75 -4.57699 
54 67 2 -9.39874 -17.2378 9.91139 
55 15 3 -10.7877 -15.0664 10.6814 
56 29 4 -9.28002 -20.281 10.0861 
8 86.8 1 -9.78521 -14.4131 11.9726 
68 29 4 -0.184944 -16.0034 7.80772 
14 86.8 1 2.10393 -22.8751 6.13395 
66 67 2 -2.50592 -14.9301 6.14965 
5 86.8 1 -0.336989 -9.57318 6.15404 
11 86.8 1 15.1708 -6.66322 9.77522 
10 86.8 1 -11.7785 -2.96551 5.25508 
72 67 2 -11.0094 2.55203 6.97155 
73 15 3 -8.80019 1.40749 5.94864 
74 29 4 -12.7104 2.84007 9.48737 
65 29 4 6.74424 3.75768 12.7114 
45 67 2 -11.2671 7.83978 6.56552 
47 29 4 -10.0684 8.58962 9.26428 
79 15 3 -20.9835 -17.6719 23.106 
19 86.8 1 -3.67333 -17.7325 20.1646 
44 29 4 1.09919 -17.8731 18.262 
42 67 2 -0.691012 -15.5166 17.5356 
43 15 3 -2.56556 -14.6593 15.8094 
12 86.8 1 5.15889 -5.87668 16.2739 
22 15 3 -22.2027 -0.650637 16.373 
21 67 2 -22.995 -2.27407 18.3651 
76 15 3 -2.90248 -0.153123 16.9892 
75 67 2 -1.07433 -1.65256 18.2697 
77 29 4 1.17621 -3.66772 17.8618 
13 86.8 1 10.3157 3.79317 22.3552 
23 29 4 23.3724 -2.36888 21.3037 
39 67 2 -18.5443 11.9273 23.351 
41 29 4 -21.4305 12.1893 22.4073 
57 67 2 1.84945 13.5351 22.9541 
59 29 4 3.34769 14.0342 20.3447 
63 67 2 7.06387 6.17761 14.5376 
64 15 3 5.72512 7.93948 16.0654 
27 67 2 -7.98109 19.772 20.7894 
28 15 3 -9.2872 19.3353 18.48 
29 29 4 -8.32822 20.1323 -23.3763 
ITEM: TIMESTEP
12000
ITEM: NUMBER OF ATOMS
80
ITEM: BOX BOUNDS pp pp pp
-1.9562138746228907e+01 1.9562138746228907e+01
-1.9562138746228907e+01 1.9562138746228907e+01
-1.9562138746228907e+01 1.9562138746228907e+01
ITEM: ATOMS id mass type x y z 
78 67 2 -19.3536 -14.8378 -18.9391 
80 29 4 18.1559 -16.7999 -17.2626 
9 86.8 1 14.0367 -16.7254 -10.5075 
15 86.8 1 -6.1613 -0.08187 -17.8988 
50 29 4 -2.93248 -0.955779 -9.9919 
62 29 4 6.45909 -6.78922 -17.1502 
60 67 2 9.33662 -7.3896 -16.3538 
61 15 3 10.9009 -8.35439 -14.3928 
31 15 3 12.4169 -6.08147 -18.9754 
30 67 2 13.7164 -6.97899 -16.8006 
32 29 4 15.8265 -8.9442 -15.8221 
20 86.8 1 13.2567 -7.09597 -15.1848 
40 15 3 -13.6097 8.00403 -18.8175 
3 86.8 1 -18.3782 7.14654 -10.0229 
37 15 3 -12.9426 11.3568 -15.4295 
36 67 2 -13.2509 13.3347 -17.2304 
38 29 4 -14.4553 16.0917 -17.6862 
17 86.8 1 -3.38143 11.0581 -15.2899 
29 29 4 -6.76602 16.7195 -18.9319 
58 15 3 0.190608 12.7191 -17.9296 
4 86.8 1 0.0685332 15.1877 -19.5449 
35 29 4 2.55065 -17.7157 -6.56572 
33 67 2 5.00714 -17.2907 -4.81899 
34 15 3 6.82282 -18.5307 -3.26762 
16 86.8 1 -2.05655 -3.91317 -1.16821 
69 67 2 -0.809463 -4.23463 -1.61255 
70 15 3 -3.25612 -3.66926 -0.65994 
24 67 2 0.44553 -6.4241 -1.39559 
25 15 3 2.21999 -5.29264 -3.07453 
71 29 4 1.2445 -6.45036 -1.9729 
53 29 4 5.65827 -6.12624 -1.01536 
51 67 2 8.36749 -5.01726 -1.85738 
6 86.8 1 11.557 -6.22939 -6.66994 
52 15 3 10.5197 -5.46799 -3.39735 
18 86.8 1 -12.7179 5.05792 -4.37563 
48 67 2 -2.33685 1.35068 -8.09376 
49 15 3 -2.93654 2.41463 -5.70194 
7 86.8 1 11.2698 2.83741 -2.97101 
2 86.8 1 3.46006 17.4543 -3.85004 
67 15 3 -2.74847 -10.2204 3.46314 
54 67 2 -7.7914 -13.9551 8.37557 
55 15 3 -8.82691 -11.8259 9.63712 
56 29 4 -7.69482 -17.0066 8.34342 
66 67 2 -2.06381 -12.2712 5.05955 
8 86.8 1 -8.10127 -12.3249 9.60619 
68 29 4 0.200633 -13.4632 6.7095 
14 86.8 1 1.65424 -18.9578 5.16693 
1 86.8 1 -18.8997 -9.41573 0.904112 
5 86.8 1 -0.324574 -8.17009 4.93686 
10 86.8 1 -9.69004 -2.23393 4.5169 
26 29 4 0.134174 -7.84607 1.28797 
11 86.8 1 12.5592 -5.47089 8.21445 
74 29 4 -10.8547 2.17689 8.14421 
46 15 3 -8.8379 6.18681 2.66149 
72 67 2 -9.15097 1.77518 5.65259 
73 15 3 -7.25868 0.228177 4.53436 
45 67 2 -9.4229 6.63852 5.24916 
47 29 4 -8.23338 7.32975 7.96432 
79 15 3 -16.9989 -14.4529 18.9439 
19 86.8 1 -2.90238 -14.6319 16.5471 
42 67 2 -0.700781 -12.8099 14.6552 
43 15 3 -2.6547 -11.9585 13.0194 
44 29 4 1.08076 -15.1799 15.3492 
22 15 3 -18.3339 -0.358598 13.1141 
21 67 2 -19.1209 -1.94565 15.1305 
76 15 3 -2.75356 0.0793323 14.0198 
75 67 2 -0.876103 -1.42025 15.2188 
12 86.8 1 4.16404 -4.73176 13.6072 
77 29 4 1.44226 -3.33478 14.7295 
23 29 4 19.2615 -2.00066 18.0844 
65 29 4 5.67239 2.77566 10.2425 
13 86.8 1 8.47359 3.14387 18.424 
63 67 2 5.99315 5.15603 12.1159 
64 15 3 4.66683 6.90056 13.6668 
39 67 2 -15.3786 9.78906 19.3513 
41 29 4 -18.2572 10.1642 18.4325 
27 67 2 -6.44785 16.3845 17.1829 
28 15 3 -7.77845 15.9805 14.8824 
57 67 2 1.47698 11.398 19.2401 
59 29 4 2.93817 11.7233 16.5879 
ITEM: TIMESTEP
14000
ITEM: NUMBER OF ATOMS
80
ITEM: BOX BOUNDS pp pp pp
-1.6449180805472267e+01 1.6449180805472267e+01
-1.6449180805472267e+01 1.6449180805472267e+01
-1.6449180805472267e+01 1.6449180805472267e+01
ITEM: ATOMS id mass type x y z 
78 67 2 -16.2908 -12.374 -15.9377 
62 29 4 5.12732 -5.66485 -14.3914 
35 29 4 1.80656 -15.0444 -5.73409 
80 29 4 14.9972 -14.3259 -14.2421 
9 86.8 1 11.8102 -14.074 -8.91938 
60 67 2 8.05434 -6.19477 -13.7368 
61 15 3 9.78169 -6.74687 -11.7511 
30 67 2 11.3568 -5.79391 -13.6767 
32 29 4 13.5493 -7.6961 -12.744 
20 86.8 1 11.0508 -6.11047 -13.3991 
15 86.8 1 -5.18608 -0.0614022 -15.1017 
50 29 4 -2.56978 -1.04528 -8.72195 
48 67 2 -1.94452 1.23616 -6.80268 
31 15 3 10.2729 -4.62758 -15.8514 
6 86.8 1 9.54358 -5.22925 -5.45969 
40 15 3 -11.1948 6.3149 -15.6227 
3 86.8 1 -15.4396 6.07285 -8.57736 
37 15 3 -10.7043 9.27101 -12.4672 
36 67 2 -11.0704 11.1634 -14.3466 
38 29 4 -12.293 13.9004 -14.8919 
29 29 4 -5.55698 14.0966 -15.4831 
17 86.8 1 -2.89384 9.29571 -12.9414 
58 15 3 -0.3063 11.316 -14.8688 
1 86.8 1 -15.8557 -7.94785 0.79167 
33 67 2 4.27062 -14.6922 -3.97989 
67 15 3 -2.25003 -7.90519 2.90837 
66 67 2 -1.6759 -10.1782 4.22633 
14 86.8 1 1.32045 -15.8888 4.40105 
5 86.8 1 -0.379697 -7.05567 3.92581 
26 29 4 -0.0246755 -6.7016 1.56498 
34 15 3 6.02562 -15.9801 -2.39868 
18 86.8 1 -10.567 4.26917 -3.59284 
10 86.8 1 -7.98347 -1.56947 3.91651 
46 15 3 -7.47116 5.28208 1.64385 
72 67 2 -7.70282 1.17058 4.64852 
73 15 3 -6.39486 -0.780915 3.34076 
16 86.8 1 -1.34074 -3.14693 -1.16841 
69 67 2 -1.10141 -3.58038 -1.15918 
70 15 3 -3.61534 -3.4914 -0.229487 
24 67 2 0.33987 -5.44717 -1.1876 
25 15 3 2.15832 -4.40409 -2.87148 
71 29 4 1.30609 -5.47276 -1.54906 
53 29 4 4.61294 -5.21254 -0.717859 
49 15 3 -2.6138 2.35378 -4.45066 
51 67 2 7.31737 -4.18185 -1.67008 
52 15 3 9.28967 -4.56992 -3.45612 
7 86.8 1 9.40422 2.36894 -2.47273 
45 67 2 -8.01119 5.63661 4.25621 
2 86.8 1 2.94731 14.8887 -3.29442 
54 67 2 -6.53493 -11.4405 7.1863 
55 15 3 -7.06214 -9.37376 8.8206 
56 29 4 -6.47712 -14.4798 6.99052 
8 86.8 1 -6.86297 -10.6466 7.8244 
79 15 3 -13.9298 -11.9864 15.7305 
68 29 4 0.463025 -11.6087 5.85618 
19 86.8 1 -2.28816 -12.2006 13.7252 
42 67 2 -0.751034 -10.7708 12.4653 
43 15 3 -2.76271 -9.93709 10.8878 
44 29 4 1.06036 -13.131 13.1179 
74 29 4 -9.43821 1.77635 7.07609 
22 15 3 -15.3786 -0.140034 10.5627 
21 67 2 -16.1041 -1.69931 12.6286 
76 15 3 -2.61608 0.216699 11.7549 
75 67 2 -0.66534 -1.2693 12.8571 
12 86.8 1 3.30367 -3.8586 11.547 
77 29 4 1.70353 -3.08586 12.2466 
65 29 4 4.81942 1.98071 8.37025 
63 67 2 5.15811 4.35518 10.248 
11 86.8 1 10.5572 -4.57045 6.97514 
23 29 4 16.0772 -1.70054 15.5893 