LAMMPS (22 Aug 2018)
##
dimension 3
boundary p p p
atom_style full
units metal
#kspace_style pppm/cg 1.0e-4
#kspace_modify pressure/scalar no
dielectric 2.0
bond_style harmonic
angle_style harmonic

neighbor 2.0 bin
neigh_modify delay 0 every 1 check yes page 500000 one 50000

region box1 block -40.0 40.0 -40.0 40.0 -40.0 40.0
create_box 4 box1 bond/types 2 extra/bond/per/atom 2 angle/types 1 extra/angle/per/atom 1 extra/special/per/atom 10
Created orthogonal box = (-40 -40 -40) to (40 40 40)
  1 by 1 by 1 MPI processor grid

molecule cat_ion cation_mol.txt
Read molecule cat_ion:
  3 atoms with max type 4
  2 bonds with max type 2
  1 angles with max type 1
  0 dihedrals with max type 0
  0 impropers with max type 0

mass    1  86.8 #anion
mass    2  67.0 #ring
mass    3  15.0 #methyl
mass    4  29.0 #ethyl

create_atoms 1 random 100 1340 box1
Created 100 atoms
  Time spent = 0.00110412 secs
create_atoms 0 random 100 2345 box1 mol cat_ion 1234
Created 300 atoms
  Time spent = 0.000100136 secs
#create_atoms 1 single  10.0 0.0 0.0
#create_atoms 0 single 0.0 0.0 0.0 mol cat_ion 1234
group anion type 1
100 atoms in group anion
group ring type 2
100 atoms in group ring
group methyl type 3
100 atoms in group methyl
group ethyl type 4
100 atoms in group ethyl

bond_coeff 1 207.729 2.689748837
bond_coeff 2 207.729 3.04931147
angle_coeff 1 207.729 144.1868904


## -- INTERATOMIC POTENTIALS -- #
pair_style nm/cut 30.0
################### properties to change
## values from easy begin

pair_coeff 1 1 2.55775855 5.77468231 10.177908113392 12.0000
pair_coeff 1 2 3.34765931 6.26892741 10.177908113392 12.0000
pair_coeff 1 3 2.00556578 4.28154794 10.177908113392 12.0000
pair_coeff 1 4 2.80927754 6.79832446 10.177908113392 12.0000
pair_coeff 2 2 4.38150147 6.80547410 10.177908113392 12.0000
pair_coeff 2 3 2.62493539 4.64799825 10.177908113392 12.0000
pair_coeff 2 4 3.67685374 7.38018133 10.177908113392 12.0000
pair_coeff 3 3 1.57258553 3.17448680 10.177908113392 12.0000
pair_coeff 3 4 2.20278450 5.04051142 10.177908113392 12.0000
pair_coeff 4 4 3.08552981 8.00342131 10.177908113392 12.0000

## values from easy end


#create_bonds single/bond 1 2 3
#create_bonds single/bond 2 2 4
#create_bonds single/angle 1 3 2 4

set type 1 charge -1.0
  100 settings made for charge
#set type 2 charge  0.408675
#set type 3 charge  0.317505
#set type 4 charge  0.273820

########################################

write_data solid.data pair ij
Neighbor list info ...
  update every 1 steps, delay 0 steps, check yes
  max neighbors/atom: 50000, page size: 500000
  master list distance cutoff = 32
  ghost atom cutoff = 32
  binsize = 16, bins = 5 5 5
  1 neighbor lists, perpetual/occasional/extra = 1 0 0
  (1) pair nm/cut, perpetual
      attributes: half, newton on
      pair build: half/bin/newton
      stencil: half/bin/3d/newton
      bin: standard

thermo_style	custom step temp pe ke ebond press density

##################################
variable    T equal 500
variable    V equal vol
variable    dt equal 0.00005
variable    p equal 400     # correlation length
variable    s equal 5       # sample interval
variable    d equal $p*$s   # dump interval
variable    d equal 400*$s   
variable    d equal 400*5   

# convert from LAMMPS real units to SI

variable    kB equal 1.3806504e-23    # [J/K/** Boltzmann
variable    bar2Pa equal 100000.0
variable    A2m equal 1.0e-10
variable    ps2s equal 1.0e-12
variable    convert equal ${bar2Pa}*${bar2Pa}*${ps2s}*${A2m}*${A2m}*${A2m}
variable    convert equal 100000*${bar2Pa}*${ps2s}*${A2m}*${A2m}*${A2m}
variable    convert equal 100000*100000*${ps2s}*${A2m}*${A2m}*${A2m}
variable    convert equal 100000*100000*1e-12*${A2m}*${A2m}*${A2m}
variable    convert equal 100000*100000*1e-12*1e-10*${A2m}*${A2m}
variable    convert equal 100000*100000*1e-12*1e-10*1e-10*${A2m}
variable    convert equal 100000*100000*1e-12*1e-10*1e-10*1e-10
timestep    ${dt}
timestep    5e-05
variable    tdamp equal ${dt}*10.
variable    tdamp equal 5e-05*10.
variable    pdamp equal ${dt}*100.
variable    pdamp equal 5e-05*100.
thermo      $d
thermo      2000

variable    ILdens equal density
variable    ILstep equal step
variable    ILtime equal time*1.0e-12 #from ps to s
variable    ILtemp equal temp
variable    ILpe equal pe
variable    ILke equal ke
variable    ILpr equal press

##################################
fix         333 all print 2000 "${ILstep} ${ILtime} ${ILdens} ${ILtemp} ${ILpr} ${ILpe} ${ILke}" file density.dat screen no
dump        1 all dcd $d minim.dcd
dump        1 all dcd 2000 minim.dcd
dump        2 all custom $d dump.atom id mass type x y z
dump        2 all custom 2000 dump.atom id mass type x y z

##################################
##################################
#  Minimize initial
##################################

velocity     all create $T 987654321 mom yes rot yes dist gaussian
velocity     all create 500 987654321 mom yes rot yes dist gaussian
minimize 1.e-4 1.0e-6 1000 10000
Per MPI rank memory allocation (min/avg/max) = 11.18 | 11.18 | 11.18 Mbytes
Step Temp PotEng KinEng E_bond Press Density 
       0          500 3.7805329e+11    25.787399    1.4574399 4.7573404e+12  0.064151289 
    1000          500   -3469.2111    25.787399    2.9172703   -769.50977  0.064151289 
Loop time of 9.64513 on 1 procs for 1000 steps with 400 atoms

100.0% CPU use with 1 MPI tasks x no OpenMP threads

Minimization stats:
  Stopping criterion = max iterations
  Energy initial, next-to-last, final = 
          378053291431     -3467.69775091     -3469.21110809
  Force two-norm initial, final = 6.56861e+12 44.2015
  Force max component initial, final = 2.90062e+12 13.8323
  Final line search alpha, max atom move = 0.00233662 0.0323208
  Iterations, force evaluations = 1000 1724

MPI task timing breakdown:
Section |  min time  |  avg time  |  max time  |%varavg| %total
---------------------------------------------------------------
Pair    | 9.5417     | 9.5417     | 9.5417     |   0.0 | 98.93
Bond    | 0.023576   | 0.023576   | 0.023576   |   0.0 |  0.24
Neigh   | 0.046284   | 0.046284   | 0.046284   |   0.0 |  0.48
Comm    | 0.017609   | 0.017609   | 0.017609   |   0.0 |  0.18
Output  | 2.408e-05  | 2.408e-05  | 2.408e-05  |   0.0 |  0.00
Modify  | 0          | 0          | 0          |   0.0 |  0.00
Other   |            | 0.0159     |            |       |  0.16

Nlocal:    400 ave 400 max 400 min
Histogram: 1 0 0 0 0 0 0 0 0 0
Nghost:    1836 ave 1836 max 1836 min
Histogram: 1 0 0 0 0 0 0 0 0 0
Neighs:    20203 ave 20203 max 20203 min
Histogram: 1 0 0 0 0 0 0 0 0 0

Total # of neighbors = 20203
Ave neighs/atom = 50.5075
Ave special neighs/atom = 1.5
Neighbor list builds = 64
Dangerous builds = 0

reset_timestep 0
fix 1 all npt temp $T $T ${tdamp} iso 1.0 1.0 ${pdamp}
fix 1 all npt temp 500 $T ${tdamp} iso 1.0 1.0 ${pdamp}
fix 1 all npt temp 500 500 ${tdamp} iso 1.0 1.0 ${pdamp}
fix 1 all npt temp 500 500 0.0005 iso 1.0 1.0 ${pdamp}
fix 1 all npt temp 500 500 0.0005 iso 1.0 1.0 0.005
run             200000
Per MPI rank memory allocation (min/avg/max) = 10.05 | 10.05 | 10.05 Mbytes
Step Temp PotEng KinEng E_bond Press Density 
       0          500   -3469.2111    25.787399    2.9172703   -769.50977  0.064151289 
    2000    478.42358   -3509.6737      24.6746    3.8386348    445.28929  0.068985093 
    4000    515.16684   -3567.3892    26.569625    2.3696847   -481.35616  0.074359459 
    6000    494.47356   -3634.0428    25.502374    1.9457001   -905.91504  0.078855503 
    8000    498.47723   -3693.3311    25.708862    2.1579772   -424.42805  0.084497521 
   10000    520.75414   -3758.7725    26.857789    3.2845428    1229.2084  0.091572372 
   12000    499.73312   -3844.7049    25.773635     2.892263    863.00888   0.10115404 
   14000    504.70452   -3922.2881    26.030033     2.107565   -653.65697   0.10949659 
   16000    493.12036   -4001.4111    25.432583    1.9629956   -1527.7056   0.11947417 
   18000    485.63556    -4096.443    25.046556    2.5917347    455.46429   0.13274628 
   20000    467.96166    -4187.706    24.135028    3.1035234    1311.1576   0.14938192 
   22000    518.62923   -4290.3934    26.748198    2.3227324   -2106.8354   0.16416476 
   24000    500.57093   -4411.3426    25.816844    2.6787569   -1098.4486   0.18156299 
   26000    475.27709   -4548.7933     24.51232    2.5444209   -3650.8076   0.20153738 
   28000    479.04237   -4663.3997    24.706514    3.3615067    727.65084   0.22269965 
   30000    491.70819   -4796.0749     25.35975    3.0762786   -274.70787   0.24384709 
   32000    515.75884   -4937.2245    26.600158    3.7168424    1337.6952   0.26655843 
   34000    477.76614   -5098.2466    24.640692    3.5987476    298.10406   0.28914669 
   36000    520.93545   -5250.4504    26.867141    4.3738746    3728.3439   0.31154358 
   38000    501.67165   -5398.2746    25.873614    4.1294163    1664.0997   0.33271523 
   40000    514.14994   -5550.0753    26.517179    4.7890345    3478.9888   0.35425643 
   42000    510.75225   -5699.5894    26.341944    5.0180302    3296.1821   0.37555866 
   44000    491.75851   -5855.4024    25.362346    4.2657168   -4438.3377   0.39359712 
   46000    503.60823   -6001.9969    25.973493    5.7303761    6348.7449   0.41182526 
   48000     486.3889   -6131.4568    25.085409    4.0196484   -6124.8988   0.42297355 
   50000    490.54161   -6250.6181    25.299584    4.3773481   -5274.6161   0.43705189 
   52000    476.86152   -6347.4658    24.594036    4.4967954   -4122.6264   0.45046576 
   54000    498.36086   -6422.4139    25.702861    5.1533799     1668.072   0.46348459 
   56000    513.42098   -6497.2714    26.479583    4.8531211   -3485.4922   0.47230654 
   58000     526.1492   -6569.9197    27.136039    6.0419654     6536.039   0.48225261 
   60000     511.2758   -6641.7915    26.368946    5.1494494   -1075.5392   0.49171328 
   62000    484.06166   -6691.2773    24.965382    6.5405423    5243.2932   0.49987821 
   64000    502.98502   -6741.6703    25.941351    6.3177949    3635.2438   0.50485482 
   66000    507.57582   -6785.7401     26.17812    6.2571809    271.58159   0.50946699 
   68000    524.81038   -6838.3867    27.066989    5.8330842   -2085.0551   0.51287294 
   70000    504.42176    -6876.733     26.01545    4.8301003   -10296.266   0.51267549 
   72000    475.69791   -6901.8971    24.534024     6.700649    6250.5133   0.51724368 
   74000    515.34312   -6931.5223    26.578717    5.4845944   -6543.5001   0.51854593 
   76000    502.44337   -6946.6837    25.913415    6.4251257    3359.6498   0.52234257 
   78000    515.66236   -6966.5323    26.595182     6.855421     8012.536   0.52544104 
   80000    532.77064   -6988.0371    27.477538    5.4050987   -2108.3543    0.5279317 
   82000    496.63829   -7020.9607     25.61402    6.0827844    4160.8559    0.5331513 
   84000    503.78984   -7039.3672    25.982859    6.6644209    9566.6265    0.5365365 
   86000    492.56856   -7061.1462    25.404124    5.4602501    -2663.795   0.53708773 
   88000    488.44788   -7069.2816    25.191601    5.8241625   -2078.5769    0.5381946 
   90000    498.11519   -7070.2813     25.69019    5.1408769   -5763.8634   0.53782078 
   92000    488.50259    -7079.059    25.194422    6.3965799    7041.6429    0.5417017 
   94000    521.26228   -7080.6192    26.883997    6.6333259    5167.6469   0.54270324 
   96000    492.61599   -7091.6114     25.40657    4.8817241   -16499.019    0.5413897 
   98000    506.84687   -7098.5663    26.140525    5.7455128   -5624.7575   0.54458033 
  100000    524.45737   -7109.8208    27.048783    6.3914882   -79.219565   0.54617466 
  102000    491.68754   -7122.9491    25.358686    6.8293976    4217.4308   0.54915726 
  104000    477.26927   -7141.9903    24.615066    6.1215388   -5870.5431   0.55110071 
  106000    488.95409   -7166.9671    25.217708    6.2879989   -7431.6936    0.5524158 
  108000    522.28745   -7186.4226     26.93687    6.6595532    3751.1294   0.55386611 
  110000    521.03752   -7201.0426    26.872405    6.1312904   -5296.2368   0.55344679 
  112000     500.4058   -7212.2658    25.808328    5.8216073   -7492.0546    0.5546421 
  114000    523.29504   -7218.4392    26.988836    5.6585316   -10170.871   0.55466156 
  116000    504.07779   -7227.0779     25.99771    6.9975922    5585.0224   0.55573197 
  118000    516.36934   -7237.6356    26.631644    5.3294687   -8052.4049   0.55474718 
  120000    526.84759   -7245.3467    27.172058    5.3634817    -6198.191   0.55433622 
  122000    523.48396   -7258.1598     26.99858    6.8169362    7133.2496   0.55668106 
  124000    487.34958   -7257.8709    25.134956    7.0774162    8074.8542    0.5570507 
  126000    542.05516   -7269.1283    27.956385    6.7545162    9192.5741   0.55747404 
  128000    494.45849   -7275.4178    25.501597     5.766094   -1892.1913   0.55800171 
  130000    508.52671   -7276.2755    26.227162    4.9333545   -14118.535   0.55671155 
  132000    537.18328   -7284.5038    27.705119     7.157921    8665.8162   0.55992466 
  134000    512.49627   -7288.7969    26.431892    7.2147629    6378.9876   0.55964815 
  136000    507.38072   -7293.5272    26.168058    5.7048759   -7157.9838   0.55908334 
  138000     472.3503   -7294.6272    24.361371    7.1939637    9724.3439   0.56052043 
  140000    537.15716   -7294.7352    27.703772    5.8140805   -2134.3454   0.55852798 
  142000    509.98611   -7299.5872    26.302431      6.08677   -8696.8111   0.55832882 
  144000     494.3059   -7300.7575    25.493727     5.846428   -8073.1335   0.55889838 
  146000    495.51662   -7299.0897     25.55617    6.6461041    996.76344   0.55951735 
  148000    484.04811   -7303.2218    24.964684    5.7444359   -8375.6879    0.5586933 
  150000    506.57316   -7299.5433    26.126408    6.0878778   -6789.2675   0.55838655 
  152000    498.83826   -7304.3711    25.727482     5.428445   -13354.433   0.55759915 
  154000    503.56177   -7304.9681    25.971096     6.109051    -1749.017   0.55951624 
  156000    508.27122   -7303.5045    26.213985    8.0327715    14292.953   0.56138628 
  158000    522.04143    -7305.262    26.924181    8.3057501    16973.736   0.56132339 
  160000     518.7843    -7305.621    26.756195    5.7323845    -11359.56    0.5574311 
  162000    482.47046   -7305.3418    24.883316    5.8811644   -6320.6997     0.558256 
  164000    523.91174   -7303.3453    27.020642    7.8910678    13228.697   0.56147838 
  166000    482.20186   -7303.4069    24.869463    6.2074173   -5772.1292   0.55883057 
  168000     484.6104   -7305.0672    24.993683    5.6895168   -6626.2966   0.55805807 
  170000     509.2542   -7305.3784    26.264682    7.5326671    8295.3817   0.55993042 
  172000    490.80288   -7303.6697    25.313059    5.9675459   -5308.1513    0.5585637 
  174000    506.21754   -7304.6851    26.108067    7.5470368     5278.993   0.55992895 
  176000    498.50104   -7303.5415     25.71009    6.2640851   -3467.7743   0.55902526 
  178000    513.64402   -7304.5933    26.491086    5.6776833   -8307.9849    0.5582672 
  180000    531.25859   -7302.4249    27.399555      7.37738    6744.5127   0.55993002 
  182000    513.63596   -7305.9398    26.490671    7.3004336    4976.6345   0.55981802 
  184000    496.14222   -7304.4421    25.588435    6.6083687   -3286.0266   0.55856753 
  186000    476.69544   -7306.0609    24.585471    5.8210556   -7519.2558   0.55789032 
  188000    502.39157   -7305.3629    25.910744    6.4656697    713.83684   0.55898004 
  190000     489.1329   -7304.5484     25.22693    5.9837087   -6912.4714   0.55848169 
  192000    507.51311   -7307.2389    26.174886    8.0076892    13380.599   0.56036691 
  194000    527.66175     -7307.74    27.214048    5.9613188   -6716.6292   0.55834392 
  196000    526.92427   -7306.3831    27.176013    6.3840719   -8483.4848   0.55805825 
  198000    516.51446   -7307.7691    26.639129    5.8600032   -5656.9135   0.55819292 
  200000    503.82467   -7306.5535    25.984656    5.9482387   -8036.9956   0.55824628 
Loop time of 8674.41 on 1 procs for 200000 steps with 400 atoms

Performance: 0.100 ns/day, 240.956 hours/ns, 23.056 timesteps/s
98.5% CPU use with 1 MPI tasks x no OpenMP threads

MPI task timing breakdown:
Section |  min time  |  avg time  |  max time  |%varavg| %total
---------------------------------------------------------------
Pair    | 8657.9     | 8657.9     | 8657.9     |   0.0 | 99.81
Bond    | 3.3649     | 3.3649     | 3.3649     |   0.0 |  0.04
Neigh   | 0.85273    | 0.85273    | 0.85273    |   0.0 |  0.01
Comm    | 6.3802     | 6.3802     | 6.3802     |   0.0 |  0.07
Output  | 0.11461    | 0.11461    | 0.11461    |   0.0 |  0.00
Modify  | 4.1546     | 4.1546     | 4.1546     |   0.0 |  0.05
Other   |            | 1.682      |            |       |  0.02

Nlocal:    400 ave 400 max 400 min
Histogram: 1 0 0 0 0 0 0 0 0 0
Nghost:    7055 ave 7055 max 7055 min
Histogram: 1 0 0 0 0 0 0 0 0 0
Neighs:    185862 ave 185862 max 185862 min
Histogram: 1 0 0 0 0 0 0 0 0 0

Total # of neighbors = 185862
Ave neighs/atom = 464.655
Ave special neighs/atom = 1.5
Neighbor list builds = 214
Dangerous builds = 0
unfix 1
unfix 333
fix 1 all nvt temp $T $T ${tdamp}
fix 1 all nvt temp 500 $T ${tdamp}
fix 1 all nvt temp 500 500 ${tdamp}
fix 1 all nvt temp 500 500 0.0005

reset_timestep 0
variable     pxy equal pxy
variable     pxz equal pxz
variable     pyz equal pyz
fix          SS all ave/correlate $s $p $d              v_pxy v_pxz v_pyz type auto file S0St.dat ave running
fix          SS all ave/correlate 5 $p $d              v_pxy v_pxz v_pyz type auto file S0St.dat ave running
fix          SS all ave/correlate 5 400 $d              v_pxy v_pxz v_pyz type auto file S0St.dat ave running
fix          SS all ave/correlate 5 400 2000              v_pxy v_pxz v_pyz type auto file S0St.dat ave running
variable     scale equal ${convert}/(${kB}*$T)*$V*$s*${dt}
variable     scale equal 1e-32/(${kB}*$T)*$V*$s*${dt}
variable     scale equal 1e-32/(1.3806504e-23*$T)*$V*$s*${dt}
variable     scale equal 1e-32/(1.3806504e-23*500)*$V*$s*${dt}
variable     scale equal 1e-32/(1.3806504e-23*500)*58836.8624504052*$s*${dt}
variable     scale equal 1e-32/(1.3806504e-23*500)*58836.8624504052*5*${dt}
variable     scale equal 1e-32/(1.3806504e-23*500)*58836.8624504052*5*5e-05
variable     v11 equal trap(f_SS[3])*${scale}
variable     v11 equal trap(f_SS[3])*2.13076613929222e-11
variable     v22 equal trap(f_SS[4])*${scale}
variable     v22 equal trap(f_SS[4])*2.13076613929222e-11
variable     v33 equal trap(f_SS[5])*${scale}
variable     v33 equal trap(f_SS[5])*2.13076613929222e-11
variable     v equal (v_v11+v_v22+v_v33)/3.0
fix          333 all print $d "${ILstep} ${ILtime} ${ILdens} ${ILtemp} ${ILpr} ${ILpe} ${v}" file visco.dat screen no
fix          333 all print 2000 "${ILstep} ${ILtime} ${ILdens} ${ILtemp} ${ILpr} ${ILpe} ${v}" file visco.dat screen no
thermo_style custom step temp pe press v_pxy v_pxz v_pyz v_v11 v_v22 v_v33
run          8000000
Per MPI rank memory allocation (min/avg/max) = 10.42 | 10.42 | 10.42 Mbytes
Step Temp PotEng Press v_pxy v_pxz v_pyz v_v11 v_v22 v_v33 
       0    503.82467   -7306.5535   -8036.9956    1858.7563   -5571.3826    3229.2313 3.680872e-05 0.00033069814 0.00011109745 
    2000      526.735   -7307.6592   -4581.4335    306.96386    -4603.133    3534.4284  0.035629632   0.40996462   0.12407843 
    4000    495.16569   -7308.0479   -5204.6516    336.03908   -3654.0799    3494.9277  0.015165026   0.33643317  0.074542408 
    6000    500.91117   -7309.2469   -1876.3679   -2676.6913   -6019.7436    3517.1805 0.0098877243   0.28149061  0.061812353 
    8000     471.4173   -7309.6089   -1574.5107   -51.264094    -7577.501    2032.3804 0.0093215487   0.29621559  0.083085232 
   10000    476.56038   -7309.0634   -1685.6506   -1817.2693   -7813.2643    1862.8846 0.0080002894   0.28749428  0.091117756 
   12000    475.64827   -7309.2114   -1746.1532   -1477.4836   -6458.9824    3622.2185 0.0062839309   0.30390951   0.09253341 
   14000    510.44584   -7308.2191   -4979.3732    2930.8828   -5370.2027    2413.4884 0.0044153542   0.30174944  0.099204259 
   16000    488.93355   -7309.8203   -2689.9215    389.92662   -6253.1208    5806.2605 0.0034863011   0.29248809   0.11145563 
   18000    489.56839   -7311.1577   -5469.0797    -1469.683   -5700.3082    6639.8002 0.0033767792    0.2910216   0.12603065 
   20000    480.38277   -7306.9601   -1349.2382   -1137.0339   -5149.6003    3128.1999 0.0046290923   0.29366371   0.13219631 
   22000    483.45909   -7310.5064   -2718.0314    -843.8793   -7509.5517    4941.8189 0.0058754291   0.29585406   0.13487446 
   24000    493.17525   -7307.9716   -4942.1732     5.826456   -7170.1215    2489.5863 0.0063724345   0.30354283   0.13901725 
   26000     513.8049   -7310.1428    -3200.758   -256.23359   -5693.2495    3525.3113 0.0060593305   0.30164857    0.1451911 
   28000    499.50302   -7309.7729   -6438.4713    -2079.066   -6747.7651    4485.2082  0.005609773   0.30068476   0.15219514 
   30000    494.29022    -7308.565   -4904.1232    204.38536   -4893.4746    4070.5713 0.0062227675   0.30573926   0.16166525 
   32000    515.84452   -7306.6317   -2964.7137   -3043.4018   -5356.8315    4395.1984 0.0055203024   0.30231162   0.16720662 
   34000     494.7891   -7311.0862   -4239.8491    1769.2964   -6955.9259    5481.4228 0.0051572344   0.30200496   0.16752111 
   36000    505.78587   -7309.4078   -7102.1554   -270.49292   -5977.9088    4013.8299 0.0048157539   0.30261686   0.16876839 
   38000    477.01267   -7309.8073     -4616.97    26.479854   -5537.1093    4037.1453 0.0045257376   0.30479746   0.17338034 
   40000    489.35573   -7310.6643    -3479.925   -664.04912   -4726.6283    4484.5702  0.004384344   0.30549462   0.17031107 
   42000    494.59989   -7308.9152   -2564.6559   -1727.3947   -4206.6277    5466.8311 0.0047336771   0.30390036   0.16930855 
   44000    521.73861    -7308.824   -2508.8514   -26.683727   -6140.9371    3715.8546 0.0048156087    0.3022202   0.17003586 
   46000    493.42219   -7309.0566   -6534.7497    130.98077    -3769.597      4824.38 0.0046856819   0.30040719   0.17213207 
   48000    537.40817   -7308.5999    -3425.425   -1049.4401   -7385.9282    2894.8141 0.0045284968   0.29694152   0.17322898 
   50000    500.82743   -7309.7643   -3530.2967     1179.155   -5758.1762    4875.5405 0.0043597023   0.29924486   0.17210432 
   52000    474.02009    -7308.923   -2754.4494    2434.8491   -4643.2391    5099.9914 0.0045392615   0.29911706   0.17287127 
   54000    456.91262   -7308.5821   -2614.0506   -33.838223   -6011.9202    5187.0891 0.0043142894    0.2967356   0.17186517 
   56000    534.96995   -7307.8249    -2312.524   -3985.7973   -4785.5396     2716.732 0.0043493379   0.29468302   0.17118386 
   58000    519.30886   -7308.6597   -1309.4999    543.96442   -7876.1943    3625.8522 0.0048404903     0.292596   0.17070183 
   60000    537.02686   -7310.2234   -5052.0174   -542.78002     -4766.23    5044.1511  0.004671229   0.29436471   0.17143752 
   62000    514.19303   -7310.8467   -2072.6467   -3591.7593   -7061.0034     4290.767 0.0046355029   0.29315222   0.17084666 
   64000    516.99709   -7309.4827    -2806.077      888.966   -5245.1849    1818.3851 0.0045578273   0.29126862   0.17025321 
   66000    462.51067   -7309.9549   -3946.4086    736.86746   -4618.0347    3200.9933 0.0047205819   0.28935073   0.16771644 
   68000    520.47164   -7309.1672   -4908.4435   -1339.0636   -5139.6193    5042.3158 0.0046021686   0.28822973   0.16814765 
   70000    476.00509   -7309.6366   -3414.8091   -572.61442   -6202.3595    5714.3505 0.0044905272   0.28774313   0.17156516 
   72000    526.63186    -7307.644   -3304.2222     684.0807   -4678.7011    4461.7983 0.0043448975   0.28753032   0.17276673 
   74000    514.91037   -7311.2608   -3225.6105    656.50307   -3165.5139    4294.2412 0.0043287627   0.28827126   0.17300543 
   76000    487.78914    -7309.308   -3109.0659    -1391.666   -5337.2859     5155.688 0.0042635116   0.28645665   0.17094658 
   78000    489.01669   -7309.9076   -5262.1572    558.95597    -7079.146    4831.7453  0.004359761   0.28688778   0.17093453 
   80000    498.09071   -7308.0428   -4068.8825      1425.24   -6716.2602    4648.2389 0.0042271015   0.28639317   0.17161194 
   82000    508.03857   -7310.8654   -4537.3796   -50.032525   -6814.0888    4117.8448  0.004095692   0.28572488   0.17340572 
   84000    472.72264   -7310.6398   -3794.1698   -3515.4841   -5635.5819     4781.052 0.0040240885   0.28554112   0.17269652 
   86000    472.17624   -7309.7297   -6277.9955    1082.2687   -5523.2339    4067.3469 0.0042296629   0.28673373   0.17205655 
   88000    481.46032   -7309.1192   -5006.9768   -33.710157   -4358.8255     3526.067 0.0041903404   0.28527334   0.17174509 
   90000    521.11778   -7308.5358   -5464.0574   -2579.9041   -6024.8402    4468.9377 0.0041208023   0.28444678   0.17176261 
   92000    508.35113   -7308.0448   -3515.6525   -742.77146   -4376.0051    2955.2137 0.0040756715   0.28567237    0.1721371 
   94000     484.9331    -7309.161   -5115.9845   -1722.0328   -3842.5138    1401.8506 0.0040159499   0.28776166   0.17189823 
   96000    524.21611   -7309.4778   -974.76348   -796.67371   -6553.9791    1620.0919 0.0041760562   0.28654203   0.17158057 
   98000    507.75754   -7308.7286   -4665.2901   -253.23145   -4467.6756    5609.2738 0.0041140648   0.28652642   0.17095325 
  100000    468.48009   -7308.9588   -2690.5741      868.929   -6882.4999     5848.454 0.0040801987   0.28645023   0.17166396 
  102000    557.08629   -7310.9714    -4097.564    35.727459   -5286.2054    2769.2535 0.0039851586   0.28696108   0.17097645 
  104000    513.51548   -7309.0794   -3427.4899    460.59751   -5893.5214     6376.293 0.0039920513   0.28606357   0.17125444 
  106000    499.40204   -7310.4698   -2483.5443    1687.5953   -3037.1448    4410.9242 0.0038999781   0.28639007   0.17336994 
  108000    522.75537   -7308.9804   -3161.3245   -1525.9489    -8233.655    3763.1757 0.0038390213   0.28595708   0.17213729 
  110000    496.63235   -7310.4943   -3853.1302   -1567.3482   -5576.4317    2696.9644 0.0038082603   0.28546247   0.17134328 
  112000    490.52364   -7309.6693   -4855.2006   -722.87126   -8593.4732    4942.6166 0.0038044941   0.28747875   0.17103264 
  114000    490.48982    -7308.503   -664.85773   -1211.2068   -3567.4351    1470.7034 0.0038504208   0.28915351   0.17240642 
  116000    510.90822   -7309.9747   -4334.6311   -102.36327   -2633.9204    7482.5748 0.0038120199   0.28762801   0.17261974 
  118000    452.26417   -7310.3758   -5141.2851   -904.59839   -6050.8953    5568.8604  0.003884751   0.28798672   0.17284504 
  120000    481.56405    -7308.527   -4936.3999   -766.14299   -7064.8091    4423.2208 0.0038984841   0.28949302   0.17260376 
  122000    480.47934   -7311.8563   -2137.6449   -1394.8638   -7521.9043    5397.0018 0.0038705161   0.28992528   0.17285404 
  124000    492.59918   -7309.6865   -4712.8469    5.3672149   -1248.6292    3460.6178 0.0038014102   0.28909575   0.17280654 
  126000     512.0844   -7311.0728   -2922.1744   -178.37266   -7624.7024    8096.6234 0.0037741831   0.28899681   0.17260632 
  128000    496.63768   -7309.8921   -1820.4569   -645.38185   -5358.7511    4996.4853  0.003968842   0.29220796    0.1741845 
  130000    515.98735   -7310.0899   -3875.0388    2284.4507    -4616.828     4982.685 0.0040191157    0.2919171   0.17400481 
  132000    554.12909   -7308.5147   -2006.6969        410.6   -6570.1467    4007.8667 0.0039204961   0.29033998   0.17351333 
  134000    509.37053   -7309.9619   -3099.5753     1186.707   -6318.0268    5371.0986 0.0038680291   0.29143788   0.17280572 
  136000    506.91568   -7309.7537   -2224.3747   -3146.9947   -9305.1401    5621.6048 0.0038439095   0.29168223   0.17411377 
  138000    498.82737   -7309.8104   -3747.2402    963.73717   -4273.7072    3434.5772 0.0042401705   0.29302542    0.1737093 
  140000    504.72341   -7306.5606   -3405.9091   -2079.8508   -6750.3383    5271.5216 0.0041216327   0.29331177   0.17325815 
  142000    491.32313   -7308.8159   -3869.0896   -1463.8707   -3523.6109    4713.3495 0.0040894631   0.29258992   0.17418899 
  144000    493.82338   -7307.3034   -1261.5692   -2015.0932   -6441.4557    4203.7487 0.0041333537    0.2924816   0.17495554 
  146000    500.82539   -7310.0098   -4515.2065    1794.7759   -5799.6077    4307.5657 0.0041019315   0.29219293   0.17503045 
  148000    508.53934    -7310.892   -2469.5394    -1162.357   -7958.2356    3601.1288 0.0041879261   0.29135661   0.17400056 
  150000      472.349   -7308.5154   -2191.5249   -721.70149   -5811.0977    5791.1403 0.0041983278   0.29203837   0.17407522 
  152000    494.22652   -7308.9916   -2529.9133   -1024.9126   -6628.4092    7028.0762 0.0042514187   0.29255858   0.17495881 
  154000    494.03088   -7309.1072   -5625.3532     2858.257    -6192.775    7188.0794 0.0042219041   0.29252224   0.17525892 
  156000    453.31913   -7308.8388   -3058.7805   -775.68997   -3593.8261    2638.0754 0.0041495591    0.2928072    0.1753262 
  158000     494.1009   -7309.4399   -3861.8353   -1373.8016   -6324.4113    9024.2882 0.0042022068   0.29212412   0.17430821 
  160000    510.51229   -7309.8285   -5354.4077   -428.43881   -9288.8824    6674.7221 0.0041755111   0.29233024   0.17535717 
  162000    511.93035   -7308.8826   -2597.6257   -635.35067   -4946.3763    3091.8657 0.0041787254   0.29258991   0.17588583 
  164000      520.853    -7310.766   -3945.8509    143.96024   -5484.3375    2812.2212 0.0041330792   0.29247625   0.17565382 
  166000    502.53107   -7309.1914   -4506.0324   -3097.9343   -9185.0843    3369.6049 0.0040793459    0.2928032   0.17489791 
  168000     453.4429   -7311.1804    -4789.142   -1085.4298   -6181.1095    6159.6812 0.0041163004   0.29344594   0.17465244 
  170000     475.3941   -7309.8383    -3540.856    831.93793   -6757.8786    4340.1743 0.0040943503   0.29372126   0.17487013 
  172000    497.69407   -7309.5517    -3295.465   -1467.9364   -5080.2343    5992.9096  0.004039356   0.29354438   0.17569988 
  174000    503.50127   -7311.0697   -5473.6805    509.33322   -6024.0042    3885.2098 0.0041813615   0.29388424   0.17587122 
  176000     506.4599   -7309.9924   -4855.2797     2177.973   -5816.4852    3767.6823 0.0041285949   0.29539677   0.17539166 
  178000    508.62445   -7309.5025   -4473.6292   -2887.3952   -3750.3448    1875.3246 0.0040900645   0.29432273   0.17469078 
  180000    484.26046   -7310.9165   -4436.2469    464.32255   -4276.3709    7234.1785 0.0041360042   0.29338138   0.17481266 
  182000    493.68733   -7308.3623   -5147.0208   -1534.9646   -6569.7628    5135.4107 0.0040853106    0.2947604   0.17501235 
  184000    503.81327   -7311.5698   -3560.6178   -1230.4966   -4407.7623    7292.3334 0.0040821002   0.29550026   0.17525349 
  186000    496.21034    -7310.633   -2224.3822   -2044.8921   -6774.7814    3876.0796  0.004108652   0.29575394   0.17555908 
  188000    466.02755   -7310.3269   -3749.9174    523.87355   -7568.2259    3841.4852  0.004096411   0.29496905   0.17530669 
  190000    513.06213   -7308.6393   -1595.1321   -3646.5763   -5966.3634    4202.6777 0.0040242208   0.29478252   0.17540682 
  192000      464.781   -7310.5964   -4094.9745   -114.39101   -2073.1176    2567.6305 0.0039870693   0.29507021   0.17451266 
  194000    482.97136   -7309.8202   -3441.7146    1113.8377   -5666.2642     6932.948 0.0039682504   0.29447776   0.17448087 
  196000    487.51193   -7309.6132   -4118.3006    377.49504   -8069.2629    4880.8373 0.0039961509   0.29540411   0.17526892 
  198000    533.12978   -7308.0663   -4012.6394   -1409.0483   -6360.9322    2135.8377 0.0041276464   0.29627519   0.17560001 
  200000    518.07815   -7309.0135   -5135.7756    471.44094    -6930.809    3861.8327 0.0042265062   0.29563841   0.17525029 
  202000    492.44763   -7306.8084   -946.95063    1306.8078   -7275.4399    2724.9823 0.0041796622   0.29602775   0.17551118 
  204000    490.46397   -7311.2805   -4946.1016    926.45883    -5223.649    4697.5162 0.0041429706   0.29642659   0.17512019 
  206000      505.787   -7308.3653   -5228.5275   -1191.9062   -4841.5849     5260.013 0.0041059095   0.29602911   0.17512169 
  208000    458.84444   -7310.8817   -4632.2755    1223.9571    -3283.996    2451.8577 0.0040549312   0.29571925   0.17503798 
  210000     502.9648   -7310.0639   -5080.4694    1539.0248   -6050.8405    4466.3634 0.0040149514   0.29580656   0.17516361 
  212000    528.42637   -7309.3685   -2538.1355   -1745.0845   -6972.9471    4382.6346 0.0039806733   0.29609341   0.17550903 
  214000    510.78244   -7311.4452   -3938.0626   -1709.7592   -6684.5436    4278.8223 0.0040196981   0.29603855   0.17506844 
  216000    506.16437   -7308.9522   -3657.0959   -480.90713   -9061.2939    6258.8102 0.0040502498   0.29607924   0.17500833 
  218000    480.58868   -7307.7522   -1435.2468    855.74772   -5160.2496    5674.4685 0.0040062471   0.29684047   0.17547868 
  220000    518.05334   -7309.5766   -2654.3386   -958.94686   -8646.1109    4691.4173 0.0039804874   0.29688479   0.17574781 
  222000    478.10988   -7309.8826   -4276.1384   -439.95494   -4938.4291    4150.2919 0.0039334815   0.29650928   0.17595338 
  224000     543.0311   -7310.8836   -1967.1714   -457.86411   -7480.5563    2391.9862 0.0039307083   0.29646584   0.17573364 
  226000    487.91778   -7312.8359   -3131.4694   -470.98148   -5049.8633    5758.2525 0.0039105877   0.29685154   0.17588734 
  228000     490.3131   -7310.3832   -3312.5511    2558.8357   -6405.3875     5407.004 0.0038967213   0.29683593   0.17625893 
  230000    494.88204   -7308.6391   -1742.4746   -1678.8736   -7466.4887    7332.9576 0.0038270621   0.29768721   0.17635574 
  232000    492.00422   -7308.9238    -2124.463   -1507.8715   -4450.7333     3371.248  0.003843389   0.29751967   0.17658136 
  234000      473.106   -7307.7957   -675.21729   -603.79258   -8357.0376     3362.967  0.003868447   0.29719159    0.1761984 
  236000    500.95229   -7308.5569   -3467.8824   -1342.1278   -6794.4209    6355.2281 0.0038690819   0.29705981   0.17630877 
  238000    491.62606     -7310.09   -4493.9575    887.36649   -6177.3573    4395.9978 0.0038685727    0.2971647   0.17689207 
  240000    504.95257   -7308.8225   -4822.9818   -386.25548   -2574.8968     4279.881 0.0038379985    0.2983031   0.17729478 
  242000     493.5901   -7310.9698   -3939.4403    48.206074   -5908.4912    7931.8628 0.0038170495   0.29780113    0.1770938 
  244000    495.89317   -7311.1899   -3784.5614    1937.8907   -5324.0121    2554.7185 0.0037833643   0.29752618   0.17653365 
  246000    491.00625   -7310.6527    -4283.041   -1315.2248   -9620.5778    5596.8052 0.0037590488   0.29789314    0.1766769 
  248000    482.49525   -7309.7589   -4866.6229    2643.0403   -6372.9433    4243.3549 0.0037465815   0.29836429   0.17689532 
  250000    510.05145   -7308.5781   -2907.6026   -1358.8584   -5889.3721    5270.7837 0.0037015538   0.29776507   0.17687262 
  252000    512.84662   -7308.7307   -5455.6006   -237.31199     -7334.55    2759.0437 0.0036962787   0.29748117   0.17737765 
  254000    499.93939   -7309.8714   -4124.7392   -2176.7159   -6026.9371    3795.3027 0.0038716396   0.29769629   0.17738317 
  256000    509.72642   -7309.3331   -3957.8437    592.47321    -7819.398    4822.6879 0.0038502679   0.29772867    0.1772705 
  258000    522.02323   -7310.5309   -4373.9893    793.86544   -5703.0395    4068.3116 0.0038409428   0.29741332   0.17707618 
  260000    518.66384   -7309.9779   -3941.5384   -2690.3941   -7014.8627    6763.7384 0.0038864271   0.29770547    0.1768538 
  262000     512.5787   -7309.3187   -4494.1536    1920.8352   -4064.0332    3690.8401 0.0039170452   0.29780021   0.17713421 
  264000    474.44874   -7308.9933   -1873.0117    1229.8606   -6803.6255     3123.106 0.0038958675   0.29758879   0.17669073 
  266000    507.25444   -7310.6014    -5090.447   -279.47282   -4248.6411    5822.9894 0.0038727527   0.29769381   0.17681858 
  268000      514.393   -7309.6893   -4551.1894   -2598.0627   -3879.3981    5179.2956 0.0038474728   0.29737417   0.17675153 
  270000    505.84594   -7311.4111    -4030.802   -395.23916   -5524.9604    3351.0006 0.0039358929   0.29710919   0.17684023 
  272000    462.15425   -7306.4398   -5508.9159   -1614.5754   -6791.1529    3057.4694 0.0038746567   0.29791107   0.17689884 
  274000    468.11836   -7310.5058    -3439.173   -959.90662   -4721.4779    6036.4716 0.0038785856   0.29897889   0.17703729 
  276000    543.49207   -7310.7684   -2364.4518     976.9021   -5830.9066    2731.5672 0.0038657746   0.29863687   0.17757977 
  278000    493.11627   -7310.1965   -7007.6109    366.44605   -2863.6697    4260.2587 0.0038441554   0.29787487   0.17747862 
  280000    499.87079   -7308.9043   -2510.3925    1582.6768   -7015.7915     4862.099 0.0038128002   0.29816135   0.17733474 
  282000     499.1051   -7310.5434   -3981.1993   -611.68496   -3292.7982    4238.2634 0.0037916228   0.29790445   0.17717541 
  284000    506.98686   -7309.7262   -4330.3202    656.01259   -6596.8595    6588.5557 0.0038102424    0.2978395   0.17777964 
  286000    512.40294   -7311.1785   -4348.6613    1427.8551   -4978.8142    5415.9087 0.0038279882   0.29834709   0.17805191 
  288000    533.64014   -7311.3682   -5823.1882   -524.05229   -4589.9847    6461.1222 0.0038652641   0.29828073   0.17800519 
  290000    502.33652   -7310.2088   -4123.5294    736.00084   -7431.7381    4773.7709 0.0037958622   0.29828116   0.17773465 
  292000     488.2571   -7309.0106     -6818.07   -106.69231   -3950.4869     5461.345 0.0038406003   0.29854969   0.17771908 
  294000    487.35221   -7307.6748   -5109.5143   -574.29158   -6263.0754    6889.4605 0.0038001706   0.29785034   0.17742553 
  296000    494.23782   -7308.6022   -7025.2546   -1648.1499    -4629.035    2282.6586 0.0037878635   0.29763629   0.17752531 
  298000    510.77757   -7311.1222   -6902.0685   -1000.7343   -6470.2065    4932.1163 0.0038003023    0.2980758   0.17779056 
  300000    527.54642   -7307.3617   -6649.9183   -693.90396    -7159.215     2122.654 0.0038113851   0.29816653   0.17779777 
  302000     500.7213    -7309.684   -7218.1411     250.9849   -5775.5157    2815.4491 0.0039016505   0.29861571   0.17783463 
  304000    487.09849   -7309.2586   -6945.7104    -922.8149   -8379.3445     1880.005 0.0038604646   0.29828586   0.17796478 
  306000     532.8541   -7309.3998    -5071.213    2451.3738   -6955.6489    3774.5809 0.0038364664   0.29881736   0.17766631 
  308000    510.06652    -7308.187   -5340.4136   -1994.6331   -6992.8187    5967.4211 0.0038034291   0.29877854   0.17791967 
  310000    539.54671     -7310.95   -3418.3562    -249.5545   -4929.6172    5048.6724 0.0037796546   0.29836144   0.17821133 
  312000    513.96299   -7309.5481   -5204.2733    -249.7813    -7250.927    4657.3653 0.0037755361   0.29843611   0.17821295 
  314000    489.32836   -7308.9148    -3963.096    614.79061   -7310.6406    4727.8396 0.0037631635   0.29851754   0.17811966 
  316000    487.90385   -7309.5003   -6948.9236   -1546.2398    -6261.914    1335.2383 0.0039015569   0.29890728   0.17808323 
  318000    498.14189    -7310.905   -4356.3957    1890.2862   -8004.7728     4516.832 0.0039171619   0.29889486   0.17772762 
  320000    492.62542   -7309.2061   -6724.5705    727.26186   -5462.3027    3611.7664 0.0039134352   0.29915735   0.17804857 
  322000     511.9832   -7310.7222   -5939.7575    516.76064   -7183.9448    1692.4661 0.0039116237   0.29922084     0.178061 
  324000    512.47801   -7308.2555    -4588.467   -1145.0554   -5163.8763    5142.9334 0.0038858021   0.29893164    0.1777975 
  326000     506.1805   -7309.5981   -4842.4422   -84.415073   -5533.4658    7529.5806 0.0038672301   0.29842079   0.17785059 
  328000    486.61372    -7311.262   -5082.8301   -2634.7275   -5636.9195    7019.5774 0.0038754739   0.29861109   0.17768264 
  330000     482.5819   -7310.4822   -6378.4847    717.09036   -5428.6493    4597.2752 0.0038852086    0.2990658   0.17781097 
  332000     524.3682    -7308.897   -4992.4087    104.10639   -2231.7382    5945.6292 0.0038839195   0.29894372   0.17805926 
  334000    479.84988   -7310.9094   -5263.1314   -533.88317   -9351.6942    4679.9107 0.0039307541   0.29898775    0.1780492 
  336000    503.39167   -7310.3972   -2946.2684   -1013.3184   -4717.5667    3908.0603 0.0039701733   0.29916557   0.17816445 
  338000    479.81194   -7308.4075   -5565.9309    -1877.054   -7436.0775    3185.8575 0.0039492866   0.29897574   0.17807596 
  340000    464.30489   -7309.2034   -8012.3474    102.59711   -4816.2307      3930.52 0.0039359367   0.29884409   0.17822568 
  342000    495.29957   -7312.2737   -4405.6915   -1518.0658   -4667.8694    5130.2305 0.0039437081   0.29859777   0.17837345 
  344000    502.39702   -7309.3715   -6844.1413   -1555.0753   -6382.3774    3431.4048 0.0039077071   0.29860368   0.17861435 
  346000     506.2059   -7310.1997   -6143.4208    195.04635   -3510.7428    3619.3942 0.0038727407   0.29860034    0.1784127 
  348000    508.23817   -7311.0877   -6766.1034   -1049.0101   -7152.3803    4437.2024 0.0038474666   0.29845438   0.17816749 
  350000    496.05766   -7308.5064   -4166.2179   -1477.7912   -6440.5593    4048.8889 0.0039058229   0.29856222   0.17844994 
  352000    473.11805    -7310.164   -5248.5913    -2040.073   -5001.8037    3589.3755 0.0039477109   0.29841498   0.17816591 
  354000    471.49799   -7309.2388   -6654.9997   -486.22486   -6958.4511    5255.0209 0.0039304425   0.29837519   0.17824087 
  356000    500.59934    -7307.792   -4491.0144   -800.78235   -7535.8071    4686.5591 0.0039539944   0.29851465   0.17836901 
  358000    500.96473    -7310.683   -5705.9011   -5246.8769     -8079.43    2269.0473  0.004073472   0.29873249   0.17888663 
  360000    475.84125   -7308.0204   -4615.7069   -1176.4722   -6178.5686    2403.3444 0.0040397222   0.29888443   0.17852863 
  362000    523.71869   -7309.0755   -5269.2391   -534.38325   -7052.4824    2268.7887 0.0040301056   0.29897341   0.17855355 
  364000    483.99287   -7311.3201   -2556.1642   -1295.4263   -4908.7313    5442.3541 0.0040254323   0.29897858   0.17853808 
  366000    508.48886   -7310.0046   -3441.1878   -225.32381   -6433.4938    3789.6907 0.0040121912   0.29845672    0.1787474 
  368000    487.51911   -7311.0327   -1292.5622    1558.1236   -6186.1922    2909.3333 0.0039948632    0.2985138   0.17871462 
  370000    522.38952   -7309.4585   -2966.1946   -392.83077   -5399.0282    2745.8635 0.0039807641   0.29868582   0.17830235 
  372000    519.03511   -7311.2673   -4128.1657   -1671.9307   -5862.5789    4712.7329 0.0039793863   0.29862814   0.17868825 
  374000    474.22215   -7310.2302   -3385.1808    436.21027   -7468.3754    3984.3221 0.0040239095   0.29884182   0.17867324 
  376000    479.14593   -7309.8213   -1357.9145    -3868.421   -4106.0489    3470.5524 0.0040441764   0.29922072   0.17863142 
  378000    530.06496   -7311.5599   -4199.1865    2454.4195   -6080.0305    5707.8448  0.004065317   0.29891187    0.1784117 
  380000    509.30399   -7310.7956   -2311.7601   -2086.2565   -4658.9258    3805.1896 0.0040351425    0.2988673   0.17836215 
  382000    511.50002   -7311.0415   -3704.3964    3345.8964    -6491.462    5993.8214 0.0040073717   0.29899285   0.17873221 
  384000    500.72984   -7311.2398   -4773.5796    1224.7987    -5153.239    2953.2244 0.0040163963   0.29876188   0.17872995 
  386000    507.10891   -7308.9073   -2800.2707    -2132.136   -4835.0379    2752.9762 0.0039974343   0.29868896   0.17846423 
  388000    477.74049   -7309.3132   -4603.4013    641.45884   -8104.6876    5180.6096 0.0039826581   0.29879486   0.17807122 
  390000    531.98216   -7308.8661   -2592.3357    57.196214   -6111.3749    5794.4676 0.0040811694   0.29907135   0.17821843 
  392000    485.36694   -7308.5544    -5610.516    2277.5139   -4698.2992    6346.8078 0.0040508374   0.29940163   0.17864698 
  394000    504.56025   -7309.3717   -3464.2812    1102.1753   -1049.4694    2743.1118 0.0040362639   0.29934228   0.17914498 
  396000    484.22914   -7307.2877   -2490.4541    3050.0301   -5609.3418    3208.5188 0.0040500488   0.29890523   0.17889144 
  398000    503.30987   -7309.9197   -4629.4154   -1178.8926   -5495.5383    3342.9688 0.0040332937   0.29919104   0.17849595 
  400000    475.71355   -7310.2989   -4676.0732    2662.8901     -6245.69    4213.4414  0.004057329   0.29900195   0.17831865 
  402000    468.72283   -7310.6546   -4677.9192   -399.25268   -6751.3494    6603.6542 0.0040451931   0.29904539   0.17888681 
  404000    486.37675   -7310.1906   -6482.6662    1380.9702    -7747.498    5737.2178 0.0040251591   0.29882474   0.17906484 
  406000    475.13422   -7310.5871   -2033.0846   -708.92969   -7386.3632    5003.6511 0.0040029087   0.29907231   0.17913272 
  408000    489.95539   -7309.6195   -2817.8708   -1070.3362   -5380.5084    4136.0727 0.0040697763   0.29921079   0.17884073 
  410000    501.09853   -7307.7508   -6046.0235   -490.74005   -4196.0973    2925.7315 0.0040403645   0.29910403   0.17885062 
  412000    519.58282   -7310.4371    -5628.824    -1167.386   -6462.7062    2465.2577 0.0040194683   0.29856519   0.17880455 
  414000    518.51649   -7310.9436     -8760.29    1593.7386   -6969.4506     5997.621 0.0040055515   0.29880639   0.17884668 
  416000    479.12451   -7309.3069   -2875.1566   -181.75328   -5970.9249    3134.5352 0.0040002458   0.29880674   0.17902354 
  418000    486.57722   -7310.0029   -3348.0768   -40.820206   -7593.5837    7241.7554 0.0039849268   0.29878479    0.1789579 
  420000       492.66   -7308.7667   -2707.4341   -2388.5173   -2440.4537    5155.8128 0.0041047328   0.29891028   0.17909394 
  422000    503.64765   -7309.1586   -4200.8074    1927.1184   -5937.2224    4018.1467 0.0041233415   0.29906782   0.17920234 
  424000    492.01883   -7308.6216   -5635.2501    4094.3224   -6371.2041    3350.1926  0.004133504   0.29881128   0.17900159 
  426000    537.78311   -7309.0403   -3039.7833   -2994.6868   -5790.3212    4323.2704   0.00413251   0.29879142    0.1789031 
  428000    493.09543   -7309.1378   -4689.5509    2039.2254   -5667.9967      4049.09 0.0041565418   0.29872765   0.17904831 
  430000    510.11416   -7310.5112   -1729.9333   -3410.9231   -5066.4051    5737.9195 0.0041679072   0.29892632   0.17918488 
  432000    536.19077   -7308.4122   -2700.1383    1084.9207   -8164.5943    6188.7676 0.0041653858    0.2991414   0.17926356 
  434000    508.03995   -7310.1095   -3047.6452   -3531.3685   -5783.6172    5825.0998 0.0041515224   0.29902277   0.17920223 
  436000    467.07636   -7309.9472   -4816.1249   -550.30346   -4443.7449    3682.8731 0.0041658291   0.29934224   0.17929145 
  438000    534.47944   -7309.4818   -3379.2818    1511.7067   -5271.2284    5195.5335 0.0041482553   0.29900085   0.17935798 
  440000    520.47929   -7309.5465    -3548.224    2100.6921   -4688.6173    2676.0099 0.0041688142   0.29870012    0.1790032 
  442000    464.99396   -7307.7058   -2576.6456   -1055.7108   -7703.7032    4524.4591 0.0041565792   0.29893131   0.17906022 
  444000    498.19935    -7311.231   -2589.5391   -830.44549   -5304.4567    5064.0965 0.0042875465   0.29881567   0.17911272 
  446000    493.63204   -7311.9973   -2232.4195   -719.11007   -5246.4273    6262.2112 0.0043521142   0.29897805    0.1793433 
  448000    526.03881   -7307.6672    169.27172    710.38742   -5177.7637    4146.9849 0.0043297103   0.29905308   0.17941396 
  450000    523.21783   -7309.9228   -2560.3372    601.71346   -5821.4908    540.06961 0.0043213493    0.2990863   0.17926941 
  452000    524.36229   -7309.5393   -4946.0999    308.22653   -6412.7222     4795.274 0.0043094724   0.29898355   0.17898581 
  454000    509.26643   -7308.5126   -2685.7773   -17.663057   -2344.7229    1826.2303 0.0042963046   0.29898458   0.17911265 
  456000    469.22872   -7309.9022   -3421.3338   -140.84657   -4253.5564    5373.1163  0.004281328   0.29881096   0.17929894 
  458000    532.34067   -7311.0806    -1061.139   -1065.9552    -7905.562    4072.8488 0.0042731593   0.29896205   0.17931643 
  460000    458.99674   -7308.7193    -4622.365   -1797.4467   -6080.4467    4902.1491 0.0042808948   0.29926156   0.17923172 
  462000    498.53219   -7310.0734   -5071.3436   -1226.8085    -5626.324    7136.7057 0.0042794303   0.29926243   0.17931895 
  464000    508.19809   -7310.4381   -5452.5892   -74.024505    -8647.377    5481.1183 0.0042624579   0.29925571   0.17953008 
  466000    510.40115    -7312.297   -4321.8478    338.20273    -5334.863    5225.7398 0.0042498539   0.29939486    0.1796993 
  468000    542.39689   -7308.6609   -3067.3414    906.03559   -6254.0782    3034.5192 0.0042694066   0.29940575   0.17962936 
  470000    492.98919   -7309.9934   -3972.3953    390.06311   -4513.5489     5063.042 0.0042431106   0.29930876   0.17961812 
  472000    511.72048   -7309.8558   -5273.4763    1896.4206   -5766.3581    6730.0017 0.0042348054   0.29935743   0.17976184 
  474000    537.79928   -7308.5184   -4342.6709   -826.59522   -4896.3766     5854.521 0.0042209642   0.29931161   0.17990451 
  476000    517.13727    -7311.584   -5659.3284   -702.68543    -6042.677    5500.6886 0.0042004994   0.29911606   0.17999988 
  478000    476.78048   -7310.4941   -4631.8556   -1338.5953   -4846.4591    4025.6855 0.0041873828   0.29917166    0.1798672 
  480000    510.57535   -7309.9731    -4724.254    296.69823   -7750.7357    4949.2637  0.004213501   0.29942435   0.17974586 
  482000     480.2219   -7309.4923   -4089.9196   -1309.1698   -5631.5682    6244.0567 0.0042010091   0.29948456   0.17971384 
  484000    479.22742   -7308.5191   -5671.8416    622.29953   -4590.9198     8039.172 0.0041865062   0.29974844   0.17983843 
  486000    520.90993    -7311.495   -4603.3271   -775.20274   -6960.1537    5006.7257 0.0041823588   0.29925348   0.17981567 
  488000     534.8963   -7310.4871   -3207.0563   -655.08195   -8962.6549    4946.0609 0.0041671691   0.29920565   0.18002324 
  490000    466.82794    -7309.673   -2856.9704   -462.66109   -7938.5354    2573.4957  0.004149513    0.2996674   0.18004107 
  492000    508.10524   -7312.8854   -2590.6851    -2447.825   -6215.1315    3456.1383 0.0041556613   0.29950602    0.1797901 
  494000    497.29405   -7308.7237   -5944.2519    72.059824   -5974.5009    2941.4609 0.0041479436   0.29944454   0.17966786 
  496000    507.64972   -7309.3022   -3704.4131   -1095.6631   -4538.9023    6616.6735 0.0041490475   0.29946741   0.17973163 
  498000    522.92965   -7309.9791   -4931.2049    860.42508   -8079.3483    6890.4388 0.0041355097   0.29957478   0.17981072 
  500000    498.52676   -7307.6772   -3927.1264   -2872.2176   -4885.9861    5863.0152 0.0041219474    0.2996184   0.17996288 
  502000    519.17847   -7310.0421   -3790.4767   -3537.6404   -6024.3701     6702.514 0.0041365091   0.29937391   0.17985141 
  504000    454.62778   -7309.3509   -5713.2363   -360.73773   -6406.8628    5839.0939 0.0041624588   0.29957354   0.17978409 
  506000    486.14272   -7308.8272   -2545.6072   -761.87626   -6146.6703    3619.3475 0.0041520105   0.30013479    0.1799022 
  508000    480.53056   -7310.9581    -2660.425    1883.9962   -4543.7448    3620.9706 0.0041715332   0.29994664   0.17993035 
  510000    512.00861   -7309.0245   -4102.1332   -885.21827   -8006.3049    2281.7719 0.0041484943   0.29970523   0.17985455 
  512000     521.6342   -7308.9406   -3661.7461   -1179.8156   -7131.2139    2748.6234 0.0041410147   0.29963179   0.17985939 
  514000     488.3809    -7310.057   -5831.5417   -2895.5354        -8758    4217.5288 0.0041340252     0.299842   0.17987874 
  516000    470.22826   -7308.8776   -4328.0079    1801.3661   -5805.3551    6145.3837 0.0041415051   0.29993604   0.17989101 
  518000    491.29198   -7309.8266   -7421.1848   -3047.0957   -8074.5028    2386.6196 0.0041728562   0.29985439   0.17990902 
  520000    506.22142    -7309.424    -3906.225   -2013.1039   -7629.4345    2463.0073 0.0041379493    0.2996608   0.17988998 
  522000    491.42742    -7310.399   -6092.5105   -915.53165   -4560.4717    3593.6157 0.0041190827   0.29988681   0.17981909 
  524000    519.20397   -7309.0406   -6451.1471    782.66036   -6755.0168    5182.7137 0.0041000622     0.299923   0.17987622 
  526000    509.65333    -7310.442   -5853.3268    1103.3305   -4336.4715    3159.2317 0.0040888974   0.29973822   0.17989303 
  528000     511.8058   -7309.9981   -4155.1892    1134.1644   -7176.5115    4351.8032 0.0040776709   0.29978793   0.17990388 
  530000    464.49849   -7310.0741   -5307.6775   -5186.5307   -6138.5383    2525.6059 0.0040820591   0.29998916   0.17976302 
  532000    515.11458   -7309.5974   -4673.9997    650.63753   -8236.7848    6034.2924 0.0040944413    0.2998616   0.17966849 
  534000    507.61452   -7309.9481   -6607.1809    121.99637   -7324.2481    5121.1026 0.0040772034   0.30002017   0.17984617 
  536000    489.70158   -7310.1678   -4690.6424     594.9045   -7013.1297     5142.671 0.0040637579   0.29999649   0.17985063 
  538000    500.42963   -7311.1165   -5874.2088     638.0913   -7474.1881    4770.7647 0.0040524271    0.3000116   0.17996069 
  540000    487.22722   -7310.9736   -2709.1308   -1365.3462   -7315.0635    7123.9289 0.0040595336   0.30012203   0.17983376 
  542000    516.96734   -7309.0389   -1833.6584    -2413.802   -6543.4481    4408.2668  0.004083993   0.30000439    0.1797505 
  544000    503.06523   -7308.8754   -5005.7567    1103.1474   -7696.9289    5310.6296 0.0040908336   0.30004463    0.1796595 
  546000    483.14008   -7309.8987   -4023.0503   -1257.8504   -7177.0319      7157.46 0.0040760168   0.30042325   0.17972183 
  548000    524.00455   -7308.7801   -4878.9079    225.06729    -6722.432     5239.776  0.004066049   0.30013935   0.17988963 
  550000    494.85828   -7309.7633    -2895.563    126.65163   -5527.9688    4416.6084 0.0040595966   0.30010743   0.17995639 
  552000    478.83928   -7308.6144   -5117.7372   -1123.1716   -5704.0735    7950.2361 0.0040629138   0.30037291   0.17989837 
  554000    545.89358   -7312.0153   -4955.8663    500.83692    -5084.622    5513.8054 0.0040481487   0.30027765   0.17982695 
  556000    531.47083   -7310.7138   -5459.7289    254.54944   -4267.1069    6966.9811   0.00406222   0.30009687   0.17976072 
  558000    502.97183   -7308.5659    -6319.397   -560.59799   -6402.0729    2821.0119 0.0040381725   0.30009171   0.17966786 
  560000    526.37586   -7310.4714   -6428.7272     628.2937   -6381.1576    5300.8138  0.004023935   0.30037913   0.17967852 
  562000     520.5254   -7308.0418   -4155.8812   -1696.2882   -4343.9082    5240.5513 0.0040037534   0.30036828   0.17988181 
  564000    530.48453   -7309.5395   -4994.3401   -265.99551    -7409.068    3338.3033 0.0040120023   0.30029474   0.17993938 
  566000    489.85175   -7308.1273   -3725.3377   -2914.3011   -6444.8826    3639.4221 0.0039877991    0.3001831   0.17968667 
  568000     503.4102   -7311.4965   -5605.0451   -3500.3759   -7000.5887     3180.754 0.0039891463   0.30062473   0.17952765 
  570000    475.24832   -7307.6947   -4654.9408   -332.99817   -9207.7915    6812.1625 0.0039768421   0.30069726   0.17974992 
  572000    495.32448    -7309.353   -6606.2492   -1201.5933   -5051.1992    5442.2724 0.0039811293   0.30051445   0.17992456 
  574000    492.41135   -7309.4528   -5251.0265   -1115.0155   -7131.9034    3852.5073 0.0039687431   0.30038802   0.17995318 
  576000    503.97389   -7309.4433   -5934.3945   -1699.2915   -6274.2175    5240.4837 0.0039646553   0.30047568   0.17991105 
  578000    485.22098   -7310.1599   -3434.4998   -2265.3836   -7674.9955     6279.015 0.0039473559   0.30053185   0.17977284 
  580000    493.71964   -7308.4585   -5282.2885   -855.74197   -7170.1468    2947.4292 0.0039337649   0.30052601   0.17987743 
  582000    495.68915   -7310.2855   -6424.0767    65.303817   -3799.8125     3841.788 0.0039188805    0.3003847   0.17984373 
  584000     487.4448   -7310.0221   -3499.5333   -1705.9252   -5275.7162    3854.0263 0.0039095227   0.30047957   0.17975924 
  586000    488.50427   -7309.3125   -4592.6249    961.61408   -6036.4578    5107.2838 0.0038975933   0.30075672   0.17977257 
  588000     536.4156   -7308.7242   -4180.5943   -1741.4543   -4314.7002    3299.0793 0.0038866849    0.3005982    0.1799726 
  590000    509.16978    -7309.969   -4736.6617   -3430.7253   -10108.187    4114.0889 0.0039185872     0.300328   0.17993527 
  592000    458.30001   -7311.3738   -5198.9874   -1238.3422   -5543.4679    1184.5317 0.0039693899    0.3009403   0.18003959 
  594000     462.0004   -7309.2367   -4337.9351   -1582.4443   -8280.6737    5114.9601 0.0039513052   0.30092914   0.18001196 
  596000    511.70546   -7307.8374   -4833.6953    898.77637   -4977.5782    3333.3128 0.0039401588   0.30106339   0.17985507 
  598000    520.52983   -7310.4462   -5527.9389    761.21917   -7514.5089    5734.0441 0.0039296646   0.30095389   0.17973968 
  600000    511.85784   -7308.6693   -6085.8683    -954.5095   -7172.5693    4029.5198 0.0039241717   0.30064769   0.17973452 
  602000    489.43734    -7308.875   -5110.2064   -2497.5166   -8302.3366    4270.9164 0.0039379488   0.30072111   0.17970624 
  604000    484.98211   -7308.6861   -4350.2318   -1487.2946   -2026.8038    4022.0762 0.0039447685   0.30085325   0.17984366 
  606000     496.0368   -7309.4462   -5845.0193    786.18165   -6647.5605    3461.1698 0.0039337947   0.30075574    0.1799725 
  608000    502.95473   -7310.8638   -5300.2222   -980.49369   -7042.6384    979.74988 0.0039220084   0.30085873   0.18003689 
  610000    501.00136   -7308.5392   -6710.6269   -1598.8001   -4242.6725    2702.7253 0.0039042589    0.3008861    0.1798861 
  612000    470.65428   -7307.8607   -7478.6951   -902.83561   -6848.4789     4266.555 0.0038982345   0.30079553   0.17981585 
  614000    491.66493   -7309.6981   -6547.9032   -2097.3437   -5761.7997    4820.1502 0.0039086879   0.30086543   0.17973999 
  616000     521.7368   -7308.7376   -4436.5185    2336.0319    -4355.796    3931.9463 0.0039021687    0.3007663   0.17986358 
  618000    475.76195    -7308.572   -3106.3981   -3890.4877   -8154.2123    7145.6198 0.0039127755   0.30075173   0.17991132 
  620000    539.84177   -7308.9139   -6172.8583     3542.026   -5931.2981    2924.0373 0.0039601243   0.30072274   0.18014236 
  622000    486.97446   -7310.7787   -2885.2769   -3615.0694   -7306.6177     4663.331 0.0039360509   0.30087987   0.18018807 
  624000    501.70583   -7309.5306   -3707.9313    548.90953     -7006.07    2971.4045 0.0039162674   0.30106671   0.18032298 
  626000    552.68079    -7309.557   -4565.6785    160.58424   -7134.2115    3261.6149 0.0039229535   0.30090664   0.18006457 
  628000    493.16485   -7308.0694   -2677.9924   -1484.7411    -5923.212    6539.2677 0.0039011199   0.30089628   0.18000834 
  630000    494.95773    -7308.731   -6647.1682   -4579.7603   -6875.4871    4185.4325 0.0038912553   0.30097307   0.18001719 
  632000    516.80214   -7310.8421   -6745.4713    509.71083   -6352.9625    4168.2302  0.003909065   0.30096836   0.18003772 
  634000    453.81837   -7311.1509   -7015.1753   -1593.5757   -6717.7146    3509.7029 0.0039036139   0.30083129   0.18020364 
  636000    511.46786   -7311.0677   -5118.7344   -777.02478   -8798.3944    1641.8223 0.0038927252   0.30092642   0.18017566 
  638000    504.60243   -7308.7272        -1978   -2513.9532   -5862.8296    362.65606 0.0039573618    0.3010441   0.18001723 
  640000    529.76737   -7309.3907   -5509.2221   -188.45267   -6484.6508    241.30778 0.0039505237   0.30111716   0.17989386 
  642000    507.97017    -7308.198   -928.95486    4537.4679   -7659.4612    4036.9706 0.0039380394   0.30119061   0.17977694 
  644000    512.03083   -7309.6079   -6913.1274    2715.7281   -5550.7208    3873.9983 0.0039412772   0.30119783   0.18005823 
  646000    502.36031   -7309.1744   -4622.5051   -2294.1296   -7414.7807    3632.0079 0.0039385721    0.3012278   0.18023441 
  648000    487.65076   -7309.6043   -4221.9919    3076.8633   -5483.7209    1130.1765 0.0039670507   0.30099342   0.18020253 
  650000    504.96155   -7308.4195   -4630.3299   -205.02479   -7162.2049    4055.3544 0.0039504137   0.30103934   0.18005134 
  652000    469.65845   -7310.2229   -4892.7175   -2326.0171   -6961.9241     3301.295 0.0039733667   0.30098644     0.179929 
  654000    503.63844   -7309.3228   -7002.5272   -2114.6867   -5859.2769    2604.8421 0.0040181482   0.30113399   0.18003326 
  656000    538.68594   -7308.2358   -6088.9421    -1997.585   -3047.2469    4737.6438 0.0040081351   0.30113735   0.18003999 
  658000    528.07368   -7309.1023   -6146.1372   -3505.6384    -5364.249    1042.4062 0.0040029627   0.30088921   0.17999501 
  660000    532.25951   -7310.1928   -5044.5554   -2899.5189   -4273.6277    11087.047   0.00399741   0.30093947   0.17993365 
  662000    490.59599    -7310.536   -6791.9014    1097.2862   -6158.6743    5080.9089 0.0040469954   0.30111159   0.18019989 
  664000    468.93753   -7309.0291   -7603.0976   -27.130619   -7409.5693    1763.1923 0.0040347529   0.30136279   0.18022373 
  666000    501.53518   -7308.0309   -4592.0891    1374.1119   -5286.6673      4452.08 0.0040258152   0.30101047   0.18002486 
  668000    505.65034   -7308.4962    -6839.543   -8.0274342   -9175.9096    5719.3936  0.004017129   0.30105154   0.18011632 
  670000    501.07487   -7309.7402   -5169.8684    78.171259   -9770.9411     4913.421 0.0040230753    0.3014327   0.18034754 
  672000    495.86599   -7310.2485   -6348.6895    2761.6153   -5363.5374    7098.3419 0.0040096519   0.30129839   0.18026709 
  674000    501.85016   -7309.8603   -6392.5253   -250.02865   -5290.1588    4073.4223  0.003992915    0.3010297   0.18027858 
  676000    486.61271   -7310.7472     -5681.58   -893.80034   -7209.1383    7997.1185 0.0040307055   0.30096923   0.18014445 
  678000    512.29213   -7310.5833    -5609.738    232.59568   -7480.6734    4803.6513 0.0040409616   0.30135418   0.18031256 
  680000     477.8356   -7309.3523   -4926.4223   -1851.9499   -5757.2162    3523.0968 0.0040268836   0.30157813   0.18014753 
  682000    494.61242   -7309.0535   -4407.9935   -469.50434   -4948.3147     5415.141 0.0040155764   0.30126513   0.18020488 
  684000    487.78215   -7310.0757   -3308.1833   -2646.5298   -6246.6796     4881.725 0.0040211892    0.3011622   0.18038168 
  686000    466.81384   -7308.8215   -978.22047     1223.005   -5414.8141    5384.5094  0.004017477   0.30148058     0.180322 
  688000    519.03623   -7309.3954   -3326.2474   -437.47192   -5447.1933      5209.56 0.0040232205    0.3014709   0.18029355 
  690000    495.37349   -7310.2293   -3879.6805    633.78971   -6880.7536    3514.2679 0.0040162012    0.3014405   0.18032405 
  692000    511.83458    -7309.506   -4238.8926    1227.5193   -6100.0884    6167.7363 0.0040043759   0.30150457   0.18028815 
  694000    511.12422   -7308.6371   -2057.6641   -1695.1161   -6249.4032    2975.4955 0.0039987979   0.30146752    0.1801794 
  696000    496.13512    -7311.106   -5145.3875   -1147.5043   -4639.1124    5636.0991  0.003993936   0.30162064   0.18003561 
  698000    499.28865   -7308.3629   -4770.5927    1589.9008   -6789.5129    3985.6119  0.003984083   0.30156913   0.18037812 
  700000    482.19643   -7310.4024   -2493.3207   -1301.1197    -5307.864    6335.7737 0.0039698483   0.30161241   0.18047947 
  702000    503.71136   -7308.5292   -3732.9904   -394.86398   -5377.0511     4345.316 0.0039741519   0.30160648   0.18032192 
  704000    506.82524   -7307.3389   -2333.7755   -1286.3813   -5008.0066    4808.8342 0.0039701748   0.30170237   0.18027913 
  706000    504.44512   -7309.4442   -4076.5908    545.20487   -6206.8654    6487.6684 0.0039625045   0.30164265   0.18030239 
  708000    503.19669   -7307.9107   -7051.8124   -1214.8519   -3728.0497    2856.3028 0.0039675527   0.30160973   0.18041566 
  710000    523.05528   -7309.9562   -6050.6522    2869.1132   -4331.0771    4552.3529 0.0039565896   0.30158836   0.18044301 
  712000    476.96388   -7309.2711   -4116.4886   -1975.6588   -8764.9559    6491.8981 0.0039543629   0.30162582   0.18052412 
  714000    516.66005   -7309.6862   -6044.7751   -165.67644   -3102.4008     4458.394 0.0039897975   0.30191163   0.18067524 
  716000     489.5489   -7309.5233   -3670.4985   -1284.1922    -9271.252    5263.3946 0.0039850452   0.30164372   0.18055204 
  718000    498.01228   -7310.5718   -5962.9187   -847.38217   -5532.6736    5653.2776 0.0039710691   0.30157137   0.18045459 
  720000    505.22431   -7309.8668   -3660.7299   -1537.8251   -4307.0725    3883.8098  0.003961693   0.30153854   0.18048101 
  722000    515.35429   -7310.5865   -6080.2996    799.27386   -5822.3933    6220.0197 0.0039521037   0.30156164   0.18036986 
  724000    501.46169   -7311.1892    -4504.627    1174.8978   -7395.7963    2405.1732 0.0039483961   0.30161732   0.18044029 
  726000    483.56063   -7308.6854   -2997.1559   -2679.7316   -5572.0694    5322.6991  0.003955308   0.30152757   0.18050064 
  728000     520.7659   -7308.2807   -4996.9085   -1442.5354   -5066.2232    4158.3261 0.0039634601   0.30153059   0.18047856 
  730000    519.37511    -7309.991   -3272.8404    940.23847    -7615.371    2797.4278 0.0039540634   0.30133139    0.1803752 
  732000    491.06082   -7310.8083   -6984.2799   -630.88915   -7471.6399    6766.3239 0.0039412721   0.30155538   0.18032837 
  734000     506.6736   -7308.4509   -6910.3012     1979.283   -4657.9083    7070.6917 0.0039294524   0.30170174   0.18039967 
  736000    469.66675    -7308.266   -4604.1686   -793.69414   -8276.0077    6757.6628 0.0039197267   0.30146793   0.18046896 
  738000    498.84414   -7310.5869    -4017.161    -1833.426   -6589.6468    7968.0161 0.0039213943    0.3015307   0.18045612 
  740000    496.90749   -7309.7014   -4173.6558   -1495.3927   -8400.4881    6429.5666 0.0039336447   0.30171023   0.18040123 
  742000    480.72326   -7311.5807   -3946.7237    385.99485   -4801.0415     6961.549  0.003932331   0.30183684   0.18044883 
  744000    473.67897   -7312.1543   -6297.0475    463.35943   -7047.2027    7758.3511 0.0039241765   0.30175337   0.18048984 
  746000    499.67635   -7309.8263   -5206.6607    3568.0592   -7258.8635    3347.8871 0.0039487161   0.30159493   0.18061015 
  748000    500.30806    -7310.058   -3656.1214   -2007.0306    -7323.532    4766.3542 0.0039377502     0.301648   0.18047022 
  750000    504.78229   -7309.7294   -5785.0563   -905.19945   -5089.7881    4750.3974 0.0039491702   0.30172466   0.18046336 
  752000    487.79129      -7310.9   -2133.7004   -507.70565   -6136.2869     2856.573 0.0039489054   0.30183551   0.18037681 
  754000    491.72807   -7309.4436    -4595.223   -2566.5138   -5024.4281    5920.6165 0.0039391357   0.30176052   0.18038804 
  756000     463.5146      -7309.5   -4035.2607   -1070.1724   -5097.2837     1606.662 0.0039308917   0.30179583   0.18046989 
  758000    504.88864   -7308.9966   -5858.6419    -2950.066   -6589.1151    1200.9311 0.0039236779   0.30170552    0.1804611 
  760000    506.52829   -7311.4684   -3493.2077   -2434.9977   -5180.9125     3810.987 0.0039138861   0.30167187   0.18043493 
  762000    467.45532   -7309.4893   -5637.9685   -325.05092   -6899.1876     1577.188 0.0039094856   0.30173968   0.18047961 
  764000    486.13449   -7308.4877   -4873.6631     -3771.47   -6582.6278    5413.9706 0.0039117116   0.30177008   0.18043276 
  766000    453.95225   -7308.7503   -5287.4158    1829.6076   -4062.5943    3272.1069  0.003901571   0.30170742   0.18041353 
  768000     508.7059   -7310.0523   -3966.0669   -1279.7339   -2615.5204    6057.1196 0.0038886688   0.30158255   0.18031078 
  770000    524.61183    -7309.706   -4204.1597      -430.73   -3954.3958    5044.9777  0.003874693   0.30161898   0.18019842 
  772000    495.24876   -7311.5828   -3414.7619   -573.86898   -4130.9475    6375.3375 0.0038750721   0.30168444   0.18031944 
  774000    496.12326   -7309.2528   -6294.2117    551.58703   -3854.0474    4159.7221 0.0038819183   0.30162226   0.18038061 
  776000    494.56451   -7309.4028   -3541.4484    2476.0036   -5796.6571     5745.474 0.0038799762   0.30157487   0.18041569 
  778000    487.00362   -7308.3071    -4942.484   -941.36879   -5400.1913    4892.4128 0.0039110059   0.30162472   0.18058107 
  780000    512.83624   -7310.0037    -2620.654     2779.094   -4253.7238    3719.9566 0.0039022772   0.30174356   0.18057378 
  782000    478.62773   -7309.2359   -4258.1543    604.32457   -6479.1791    2520.4494 0.0038964656   0.30163221   0.18053491 
  784000    506.44796   -7309.0149   -5809.3979   -2784.5193   -8552.3497    3420.6589 0.0038849418    0.3015616   0.18037074 
  786000    494.26185   -7309.0307   -3225.5558    2847.5798   -6939.0545    5046.0837 0.0039054373   0.30162398   0.18036102 
  788000    486.42754   -7309.2435   -2714.4068   -2239.4986   -5714.9824    2758.4215  0.003899094   0.30159907   0.18047329 
  790000    478.15962   -7309.9179   -5289.4164   -1350.4811   -7528.8744     2548.982 0.0039021425    0.3018228   0.18068835 
  792000    498.71617   -7309.8822    -5069.906   -2949.1496   -6961.4875     5207.185 0.0039195553   0.30179064   0.18071124 
  794000    486.51125   -7307.3616   -3556.5161   -2555.8257   -8712.9857    5226.5167 0.0039238111   0.30194449   0.18071215 
  796000    488.08243   -7311.3022   -2938.7991   -668.63361   -2396.0971    5059.2078 0.0039148457   0.30207364    0.1807161 
  798000    489.36556   -7309.3081   -2032.4444    40.097758   -6498.4469    5200.8331 0.0039073941   0.30184778    0.1806644 
  800000    539.00159   -7310.3338   -6188.9423   -1511.5316   -5085.8959    5876.1763 0.0038977786   0.30184992   0.18060864 
  802000    497.95557   -7306.4102   -4655.1533   -5094.2937   -5752.5413    4573.0519 0.0039145211   0.30186698   0.18066071 
  804000    499.48363   -7311.1178    -5011.444    463.36408   -5444.0241    2691.6725 0.0039412615   0.30204271   0.18069866 
  806000    471.56667   -7309.4935   -5997.3622   -62.888348   -3016.0857    3899.5397 0.0039356621   0.30206501   0.18081492 
  808000    519.37329   -7310.8243   -2951.6985   -1943.4236   -4791.7923    2191.3193  0.003924398   0.30200285    0.1808233 
  810000    505.22783   -7309.2161   -5788.9207   -1850.2061   -4485.8126    1977.1203 0.0039139628   0.30197558   0.18079495 
  812000    541.28162   -7310.7679   -4356.4748   -3125.4242   -7060.1887    3822.1437   0.00390786    0.3020094   0.18068898 
  814000    503.65147   -7309.2968   -4387.5425   -2827.1107   -7465.3722    5129.2587 0.0039059812   0.30211191   0.18073005 
  816000    456.77422   -7311.8204   -5007.1327   -90.070371   -6433.6832    4875.7808 0.0039121852   0.30191894    0.1808335 
  818000    529.35916   -7309.8523   -5856.1899   -1304.6539   -4835.6171    5108.8479  0.003903817   0.30194871   0.18086636 
  820000    527.79466    -7308.871   -7263.5663   -1784.1395   -6435.7203    4270.3525 0.0038939267   0.30202121   0.18092646 
  822000    524.86955   -7310.2385   -829.95292   -2173.2328   -2308.4325    4088.8287 0.0038832414   0.30214631   0.18086682 
  824000      492.208   -7309.8703     -7136.58    777.79136   -4259.1929    2963.7771 0.0038728969   0.30192229   0.18078623 
  826000    499.02034   -7311.5886   -5066.5339   -568.45794   -5106.8885    5037.9889  0.003871166   0.30179153   0.18084026 
  828000    483.99158   -7310.8081   -4869.8558   -575.28106   -7027.8079    3031.6531 0.0039140948   0.30203331   0.18096534 
  830000    470.05261   -7309.1854   -5292.0983   -1834.2719    -5370.856    4493.2583 0.0039596837   0.30222823   0.18117742 
  832000    504.86232   -7308.1014   -5145.8712    1830.4818   -4585.8403    5234.2725 0.0039597356   0.30227234   0.18120138 
  834000    458.79665    -7307.481   -4482.8028   -2365.2463   -4664.8936    5723.8405 0.0039476335   0.30225502   0.18136313 
  836000    510.17488   -7310.4698   -5066.5372    235.39685   -3593.8223    4529.0618  0.003933678   0.30227365   0.18137493 
  838000     509.7251   -7308.1145   -4159.4128    1916.3497   -6216.7613    6446.8396 0.0039225137    0.3022733   0.18131104 
  840000    520.41317   -7311.0741   -5881.0375   -946.14181   -5937.1951    6240.5349 0.0039095551    0.3022884   0.18121008 
  842000     477.0574   -7307.8011   -5542.5678   -1650.4388   -8695.3633    4205.1251 0.0039042088   0.30223669   0.18126033 
  844000    511.40527   -7307.9875   -6533.6947   -1219.3876   -8122.9757    6078.0015 0.0039045394   0.30226739   0.18137345 
  846000    520.05957   -7309.3057   -3260.6908   -262.53701    -7191.598    7297.1581 0.0039218527   0.30235192   0.18135357 
  848000      509.903   -7307.9343   -742.08923    555.93404   -7557.3932    3896.8004 0.0039103777   0.30246902   0.18133291 
  850000     497.6032   -7311.9999   -5928.9293   -1327.1716   -6557.9509     7038.047 0.0039031325   0.30234292     0.181194 
  852000    536.06257   -7310.3639   -6420.6904   -514.53795   -5154.1362    6367.9099 0.0039023478   0.30227472   0.18125775 
  854000    525.80251   -7312.4994      -5242.8    185.19668   -4908.5874    3755.1038 0.0038938718   0.30214586    0.1812842 
  856000    474.99109   -7310.6831   -3597.1884   -771.12864   -6328.8075    5479.9708 0.0038914008   0.30217247     0.181213 
  858000    493.87793   -7309.6487   -4134.7287   -1757.7183   -4350.3571    1045.3804 0.0039194155   0.30250478   0.18130744 
  860000    477.69397   -7310.2237   -2895.9307    -3046.521   -5503.6225    2052.1985 0.0039181432   0.30243852   0.18131032 
  862000    493.76103   -7308.8143   -2077.5889   -452.16822   -5725.1964     1552.997 0.0039344095   0.30241194   0.18125415 
  864000    500.03819   -7308.2372   -3650.3012    349.14299   -6786.0287    2949.4776 0.0039299343   0.30227379   0.18128391 
  866000    543.19781   -7309.3251   -4868.7896    49.656386   -6988.6338    1002.4098  0.003922541   0.30224886   0.18126449 
  868000    485.19905   -7308.6557   -3190.7773   -751.75926   -3859.9522    3702.7783 0.0039192917    0.3023751   0.18127521 
  870000    471.84905   -7310.0875   -4029.9788   -511.17203   -8018.2122    5049.7702 0.0039231305   0.30219488   0.18127886 
  872000    507.70945   -7307.8507   -2467.2919   -2503.6769   -7746.7797    3230.1589 0.0039367104   0.30219018   0.18128842 
  874000    507.15924   -7309.9164   -3950.9197   -466.85919   -7497.0756    4594.0636 0.0039451809   0.30221096    0.1812142 
  876000     496.8951   -7308.9919    -4144.772   -58.427272   -7490.7629    4405.1652 0.0039331108   0.30219642   0.18120574 
  878000    465.34427    -7310.513    -5506.312    17.759131   -6155.4214    5537.2256 0.0039253982   0.30221601   0.18124455 
  880000    495.68326   -7310.2891   -3296.6043   -1161.9311   -5638.6766    3748.6716 0.0039198531   0.30219399   0.18119982 
  882000      484.477   -7309.1329   -5743.1499   -943.40057   -5507.9171    6070.0125 0.0039145954   0.30212105   0.18111483 
  884000     528.3328   -7309.8381   -5279.8893    1093.1882   -6124.8947    2957.7415  0.003916813   0.30208941   0.18111125 
  886000    444.30589   -7309.4592   -4406.5224     1959.045   -3470.6255    2949.8643 0.0039043391   0.30212835   0.18116364 
  888000    473.96937   -7310.7475    -4493.391   -2673.2032   -4033.5129    6880.2124 0.0038997152   0.30200198   0.18128359 
  890000    494.71635   -7308.4212   -4426.8431    248.84696   -8070.7685    3823.7502 0.0039178095   0.30205165   0.18136104 
  892000    488.63803   -7309.8685    -3860.716    1323.0926   -3394.2944    4202.9749 0.0039201291   0.30208443   0.18120145 
  894000    492.91866   -7310.7432   -4122.9157   -688.74077   -7087.3006    4173.5053 0.0039075769   0.30202402   0.18113266 
  896000    483.17087   -7309.5039   -5122.9836   -1700.3717   -7097.9676    6192.4984 0.0039121992   0.30191553   0.18116564 
  898000    482.13458   -7308.4902   -5916.0463   -2142.8182   -7098.0975    6374.6319 0.0039181398   0.30204365   0.18125661 
  900000    514.58265   -7308.9849   -6051.5903    171.12743   -6445.2563    5502.1557 0.0039120152   0.30218368   0.18139125 
  902000    494.76289   -7308.6918   -3891.9527   -262.52428   -4299.3417    2102.5974 0.0039076963   0.30224529   0.18137638 
  904000    525.59078   -7311.4738   -3311.8647   -1628.4608   -3449.4586    2682.1107 0.0039193555   0.30220017   0.18124585 
  906000    493.27302   -7309.3667   -6076.1253     2283.313   -5023.0261     5057.779 0.0039117569   0.30221432   0.18117028 
  908000    515.31782   -7311.9152   -5506.5425   -530.98881   -3011.3377     3455.849 0.0039027455   0.30214386   0.18117792 
  910000    535.45328   -7309.3619   -6199.0073   -908.31016   -4308.7684    4476.8597 0.0038959057   0.30213706   0.18127623 
  912000     524.4107   -7309.8206   -5940.4569    590.99296   -3970.7859    5808.3282   0.00388904   0.30218512   0.18116385 
  914000    525.35578   -7308.6133   -3625.9287   -3529.5877   -5943.3384    2823.6477 0.0038808905   0.30209337   0.18131724 
  916000    517.17997   -7311.7604    -2416.471   -3446.5133   -5314.9276    4556.3766 0.0039095275    0.3023352   0.18127395 
  918000    487.14591   -7309.6122   -3722.6649    1273.4827   -3769.6865    4259.9722 0.0039149477   0.30229417   0.18134404 
  920000    508.34089   -7309.5391   -6306.4372   -2417.8784   -7227.7103    6633.6016 0.0039135053   0.30233133   0.18125679 
  922000    507.15655    -7309.172   -3427.7897   -830.59623   -7095.7192    7863.0464 0.0039260915   0.30246636   0.18132917 
  924000    507.90488    -7310.116   -5278.0231   -2331.9339   -7644.2676    2528.2897 0.0039356427   0.30237065   0.18132442 
  926000    537.79954   -7308.6094   -4278.0602   -1067.6048   -7800.2043    6734.8482 0.0039306825   0.30227972   0.18130647 
  928000      509.512   -7310.1607   -5077.8501    -207.2403   -4976.8278      4855.19 0.0039226579   0.30222977   0.18131415 
  930000    517.65739   -7310.5041   -6236.8478   -2033.4472   -6312.9885    4421.4526 0.0039194554   0.30238712   0.18123169 
  932000    477.02167    -7310.925   -4631.7841    740.26158   -4594.9743    7616.6216 0.0039292502   0.30241629   0.18128554 
  934000    482.50453   -7309.1433   -5187.0327   -1821.3503   -5136.9616    107.22436 0.0039141458   0.30237811   0.18126655 
  936000     477.3205   -7306.7153   -4732.3361    1974.7111   -4320.4272    5942.1542 0.0039014455   0.30235137   0.18123823 
  938000    483.80915   -7310.9076   -7080.2436    551.04531    -7685.549    3453.9327 0.0038926271   0.30223687   0.18125711 
  940000    556.30613    -7308.834   -3123.1675    111.68675   -4212.6946     3898.423 0.0039083475   0.30225412   0.18121262 
  942000    456.49465   -7309.1802   -3781.0673    2528.7562   -3634.6815    4252.1569 0.0039046202   0.30228652   0.18120457 
  944000    535.23591   -7308.1679   -4111.5957   -280.45713   -9324.1553    5206.9542 0.0038969696   0.30233895   0.18113347 
  946000    482.04322   -7310.6073   -4025.5289    328.84921   -6804.2564    2453.4508 0.0038901753   0.30237234   0.18112792 
  948000     490.7353   -7309.9262   -5503.5646   -1318.2585    -6426.376    3472.7238 0.0038818905   0.30243213   0.18116136 
  950000    497.29272     -7310.81   -6115.7565   -2532.3394   -5456.5725    4313.8551 0.0038778317   0.30239202   0.18111453 
  952000    503.96102   -7310.1328   -7295.1536     1901.463   -5547.1481     2822.034 0.0038780922   0.30223268   0.18114173 
  954000    480.51165   -7309.5139   -8018.5755    -175.9656   -6674.2529    2348.9568 0.0038689982   0.30221199    0.1811824 
  956000    528.74127   -7308.6128   -5599.8291   -99.627388   -5929.6146    5774.1237 0.0038614808   0.30238633   0.18112723 
[...]
 7710000    469.28464   -7308.8087   -5134.7371   -1643.1465   -10092.813    3656.4966 0.0050274504   0.29595456   0.18460937 
 7712000    514.16637   -7309.5091   -4185.3995   -1495.9504   -4347.5203    2743.1011 0.0050264069   0.29597597   0.18460052 
 7714000    484.51613   -7308.6051   -6341.3602    43.548233   -7579.0218    3091.3242 0.0050250359   0.29597109   0.18459399 
 7716000      511.388   -7308.8764   -6473.9956   -773.34148    -5982.703    3942.0541 0.0050249358   0.29597883   0.18459076 
 7718000    482.82449   -7307.2981    -4510.103   -742.20605   -6516.6005    4231.3076 0.0050242304   0.29597714   0.18460371 
 7720000    519.57278   -7309.7971   -6866.0902   -427.34659   -5008.5412    3842.4292 0.0050245251   0.29599878   0.18462121 
 7722000     532.9431   -7310.2293   -6130.1981   -1150.5668   -4076.7783    2768.7258 0.0050250511   0.29598178   0.18461256 
 7724000     501.8553   -7311.1638   -6099.3263     2006.973   -5421.1902    4600.1588  0.005023563   0.29597928   0.18460269 
 7726000    489.76259   -7309.9101   -7927.7478    1375.0487   -7021.9075    1306.6299  0.005022349   0.29598708   0.18459231 
 7728000    486.21117   -7308.8054   -4548.5902   -3005.4405   -7490.7099    4933.2421 0.0050210428   0.29598527   0.18460084 
 7730000    505.03129   -7310.0173   -7787.6823    724.85966   -6969.5513    2581.6938  0.005024863   0.29599896   0.18460323 
 7732000    514.92837   -7308.9202   -7766.9762    2227.0214    -7699.482    5463.4045 0.0050235192   0.29600246   0.18460701 
 7734000    504.63312   -7311.3065   -5425.9766    1288.4433   -3848.5664    6004.5603 0.0050217678    0.2959965   0.18461988 
 7736000      495.613   -7309.5891   -6477.9788   -1436.9887   -4456.4133    3835.7325 0.0050203835   0.29599604    0.1846142 
 7738000    528.68103   -7310.2212   -4941.9624   -1170.7726   -4634.7442    3766.2906 0.0050189563   0.29599311   0.18461236 
 7740000    494.18796   -7309.4493   -4880.3938   -1362.2818   -5032.9196    3749.4909 0.0050179205   0.29600976   0.18459815 
 7742000    528.32767   -7309.3099   -4274.4302    104.82499    -4430.506     3824.378 0.0050188282   0.29602556   0.18459105 
 7744000    502.35011    -7311.427   -5018.2928   -241.62361    -5557.186    6431.5487 0.0050176584   0.29604583   0.18460067 
 7746000    521.10592   -7308.3972   -3175.8014    1748.3953   -4076.2546    2693.0216 0.0050164392   0.29604001   0.18460448 
 7748000    507.67854   -7310.6706   -4720.2434   -1127.1374    -4535.402   -85.489075 0.0050154174   0.29604163   0.18459895 
 7750000    506.97876   -7309.4125   -2669.6989   -352.86177   -6703.7692    3088.1895 0.0050143641   0.29602649   0.18460403 
 7752000    489.67578   -7309.8506   -5051.3939    704.81722   -6410.9332    2861.4466 0.0050136811   0.29603603   0.18459182 
 7754000    531.22233   -7310.7494   -5742.7301   -3017.0692   -7878.8124    4027.3398 0.0050155971   0.29604849   0.18459168 
 7756000    512.60144   -7310.0805    -9269.987   -1242.1914   -5213.2818    5297.3079 0.0050154353   0.29605124   0.18459883 
 7758000    493.93323   -7310.3341   -5748.0255   -1349.6629   -5963.0479    3937.9244 0.0050145882   0.29605443   0.18458271 
 7760000    492.51173   -7308.7556   -10102.632    1048.2714   -4461.5136    5676.8617 0.0050148278   0.29607123   0.18458823 
 7762000    499.55802   -7310.4302   -5171.4184   -2995.5693   -3211.5393    6034.7814 0.0050134578   0.29604852   0.18459701 
 7764000    493.57401   -7309.8377   -4378.5117   -300.23416   -2440.9646     2695.803 0.0050121576   0.29604005   0.18459524 
 7766000     475.0662   -7309.3054    -5260.065    1842.0265   -4976.4142    4471.5706 0.0050103665   0.29603938   0.18458231 
 7768000    501.65434   -7308.7634   -3163.1999   -1846.5627   -5613.4412    5031.5207 0.0050093404   0.29605572   0.18457712 
 7770000    486.65734   -7307.0931   -3155.5771    1419.9412   -7225.2878    5332.2167 0.0050111836   0.29606713    0.1845886 
 7772000    491.90718   -7309.5792   -1852.8925   -2.6628968   -5854.5444     4727.386 0.0050098592   0.29607137   0.18459188 
 7774000    461.95217   -7310.6131   -3331.0955   -1280.8119   -5733.0851     4846.036  0.005008086   0.29606891   0.18458963 
 7776000    456.16545   -7309.7067   -1129.0498   -561.11836   -5053.9078    3516.4084 0.0050078246   0.29606795   0.18458883 
 7778000    524.73972   -7310.7337   -1442.4855   -1621.2718   -7239.7402    8492.3913 0.0050077685   0.29607436    0.1845839 
 7780000    479.58385   -7311.6904   -2480.1861   -418.11704   -7637.2006    1044.0502 0.0050068241   0.29606682   0.18458681 
 7782000    518.31943   -7308.5689    955.21867   -3749.0051   -6767.2283    4626.8664 0.0050054132    0.2960706   0.18458161 
 7784000     493.1451   -7308.6965   -1901.7385   -1827.7427   -8336.2889    1154.6299 0.0050039794   0.29607852   0.18456736 
 7786000    496.26513   -7307.6396   -3894.6678   -3275.8773   -9217.6878    1692.8842 0.0050037599   0.29607566   0.18457261 
 7788000    500.05737   -7309.1945    -1902.758   -535.26789   -6391.2679    4968.1194 0.0050013271   0.29607288   0.18457674 
 7790000    524.39866   -7308.7933   -3553.6201   -2884.9024   -7983.9014    2041.7402 0.0050019177   0.29607302   0.18457721 
 7792000    500.32559   -7309.8162   -1815.4936   -222.64408   -6139.7111     5091.988 0.0050017442   0.29608875   0.18458347 
 7794000    491.04779   -7311.6526   -5973.5276   -2718.5658   -6644.8501    5029.3581  0.005000126   0.29607689   0.18457605 
 7796000    502.50238   -7310.2442   -4491.1894   -1304.9522    -7224.061    4495.7779 0.0049988279   0.29607732   0.18457471 
 7798000    501.50965    -7310.119   -5996.4171   -280.43915    -6052.429    5608.3212 0.0049984781   0.29607968   0.18458767 
 7800000    501.15897   -7308.5072   -4554.8078   -2739.4885   -7550.0199    3427.5766 0.0049976866   0.29610149   0.18459379 
 7802000    495.14665   -7309.8356    -4400.735   -282.97537    -4858.787    7173.7256 0.0049989321   0.29611189   0.18459297 
 7804000     498.6481   -7308.7944   -4891.3147   -435.59509   -7918.3542     1585.225 0.0049986301   0.29610404   0.18457693 
 7806000    514.72781   -7311.0025   -3442.1742   -431.44879   -6456.5182    4113.2813 0.0049977102    0.2961109   0.18456432 
 7808000    531.35105   -7310.9803   -4691.7485    2763.9302   -6524.0804    5400.2109 0.0049991842   0.29610625   0.18455977 
 7810000    512.66949   -7311.3006   -4511.3897   -751.06509   -4302.2856    2408.8755 0.0049971635   0.29609856   0.18457883 
 7812000    505.50692   -7308.5186   -4398.7563   -256.05522   -7888.1033    3953.5397 0.0049993886   0.29610204   0.18457608 
 7814000    515.77889   -7309.6886   -3019.0519   -825.56123    -3335.837    5849.4607 0.0050032652   0.29612969    0.1845759 
 7816000    498.52554   -7310.5976   -4109.9151    19.263496   -4311.3608    4065.0813 0.0050026015   0.29613333   0.18456847 
 7818000    512.64128    -7309.159   -6038.8144     637.8552   -2768.5632    3638.2465 0.0050021054   0.29612235   0.18455876 
 7820000    520.78142   -7309.0775   -3782.1462    1052.5211   -5202.8646    7609.6058 0.0050023766   0.29610559   0.18455603 
 7822000    501.36014   -7310.6722   -3656.3423   -277.09959    -6796.939    5323.4829 0.0050036639    0.2961073   0.18455831 
 7824000    475.21605   -7312.0067    193.30301   -2097.7345   -5011.2112     4688.343 0.0050025806   0.29610632   0.18455774 
 7826000    494.94444   -7309.7418     131.2067     -755.705   -6484.5138    4417.1555 0.0050020421   0.29611009   0.18456044 
 7828000    502.93637   -7311.5164   -1847.0593   -3160.5606   -6357.9419     2971.294 0.0050016368    0.2961238   0.18455807 
 7830000    500.57773   -7308.9188   -52.589864   -3233.9446   -7645.4155    4724.7585 0.0050034378   0.29612368   0.18455081 
 7832000    516.18245   -7308.6956   -3873.0982     -596.739   -5484.8178    4877.7765 0.0050018753   0.29613509   0.18455836 
 7834000    485.07236   -7309.5674   -2989.5563   -791.33154   -6276.6751    6109.1954 0.0050006583    0.2961365   0.18454682 
 7836000    509.07342   -7309.6449   -4933.0437    -2205.869   -5560.4489    5038.7991 0.0049994126   0.29612685   0.18456379 
 7838000    524.58818   -7311.3634   -3544.4716   -286.46574   -3416.7596    4377.8054 0.0049991867   0.29611929   0.18456385 
 7840000     463.3246   -7309.1894   -5808.4593    2459.0179   -6388.2486    3131.9986 0.0049981304   0.29613316   0.18456371 
 7842000    504.26691    -7311.641   -6129.3025   -94.575781   -4918.7467    6142.9605 0.0049979799    0.2961284   0.18455415 
 7844000      488.531   -7307.1378   -5939.0749   -701.03332   -5175.0801    6133.7473 0.0049965929   0.29612967    0.1845554 
 7846000    487.37086   -7309.1129    -5402.875    1175.5617   -5000.1912    6396.3407 0.0049952636   0.29612752   0.18456089 
 7848000    544.99528   -7308.6345   -3296.8683    96.655791   -4942.1766    5210.5212 0.0049939106   0.29614855   0.18456417 
 7850000    492.39388   -7309.7034   -3793.0254   -1031.7346   -4642.0514     6176.075 0.0049986963   0.29614467   0.18455502 
 7852000    535.50174   -7308.3791   -3510.6541   -807.54304   -5889.5997    6920.2936  0.005000217   0.29614479   0.18455971 
 7854000    502.20688   -7309.7163   -1326.7214    129.59316   -5933.7904    4805.6892 0.0049997544   0.29614336   0.18455914 
 7856000    431.09786   -7308.2975   -1910.8795   -2195.2201   -8075.2789    4022.4397 0.0050003661   0.29613884   0.18456162 
 7858000    489.65549   -7309.3435    1842.3573   -3648.0275   -7907.9141    5251.9461 0.0049996509   0.29614829   0.18455341 
 7860000    506.76074     -7311.05   -1195.5124   -737.44862   -4045.7394    5825.2354 0.0049995481   0.29615206   0.18454601 
 7862000    461.89327    -7309.875   -271.16882   -2444.5105   -6914.7579    3447.1205  0.004998292   0.29616222   0.18455556 
 7864000    508.86919   -7310.9702    371.10251   -2650.9767   -6308.8935    3659.0488 0.0050019501   0.29615661   0.18454966 
 7866000    484.77582   -7310.0039   -2264.1975    955.56717   -5452.4901    3161.5949 0.0050008541   0.29615191   0.18454608 
 7868000    499.51645   -7311.6158   -2084.9821    968.83228   -6913.0146    3714.8255 0.0050006705   0.29615755   0.18454618 
 7870000    466.34151   -7308.5047   -3126.9026   -599.86186   -6445.3863    4997.4084 0.0050002411   0.29615592   0.18456484 
 7872000    516.60064   -7308.5634   -3334.9009    1149.7498   -4907.8456     5509.134 0.0049993903   0.29615991   0.18455285 
 7874000    480.21039   -7309.3468   -4530.9331    727.57789   -7766.7034    6927.3531 0.0049985193   0.29616356   0.18455202 
 7876000    517.85991   -7308.8391   -795.99905    -3501.079   -4685.4013    5866.0397 0.0049982247    0.2961769   0.18454306 
 7878000    497.46935   -7309.3712    -4340.097   -2197.6543   -9299.9654    6941.9718 0.0050018104   0.29617279   0.18454333 
 7880000    480.29994   -7309.1034   -1620.7715    102.65655   -5943.1379     5726.436 0.0050008146   0.29617816   0.18453567 
 7882000     468.1146   -7308.7713   -1555.1739    -1776.022   -9801.5428    5152.5887 0.0050009582   0.29616653   0.18454083 
 7884000    479.19525   -7312.1672   -2628.0797   -910.68178   -6183.4737    3944.4117 0.0049993954   0.29616587   0.18454501 
 7886000    548.92688   -7311.1078   -1897.1802   -1713.9058   -8184.3283    6235.0794 0.0050014617   0.29617841   0.18454156 
 7888000    496.37126   -7310.0404   -3854.4964    72.379149   -9172.3339    2724.7085 0.0050009583   0.29619051   0.18453681 
 7890000    510.13148   -7309.2984   -4019.2307   -444.93872   -5997.3535    4375.7016 0.0049995562   0.29619748   0.18453184 
 7892000    538.20287     -7307.61   -7013.3844    2684.0643   -8326.4145    3069.9089 0.0049983116   0.29618416   0.18453525 
 7894000    514.70369   -7311.9856   -4748.6272   -126.34396   -5344.4279    7507.6865 0.0049970947   0.29617283   0.18454706 
 7896000    491.54487   -7310.2343   -5305.3247    1845.8463   -5986.1527    3843.2165 0.0049961142    0.2961798   0.18454551 
 7898000    492.54697   -7309.9873   -857.11431   -1714.5114   -6309.6956    1033.9194 0.0049952898   0.29619014   0.18453878 
 7900000     499.3206   -7309.5707   -4379.9764   -779.08721   -3028.9585    1961.5803 0.0049944047   0.29618154   0.18451656 
 7902000    519.97417    -7309.572   -4030.9017   -1714.1687   -5626.3144    4916.6141 0.0049959514    0.2961876   0.18451883 
 7904000    481.85953    -7309.379   -5515.7141   -1569.7256   -7709.4226    4032.1393 0.0049952449   0.29618413   0.18453223 
 7906000     500.6297   -7309.9066   -3901.6979    -1359.071   -6134.0426    3870.7563   0.00499432   0.29619693   0.18453802 
 7908000    488.09907   -7310.1566   -3021.8215    458.53614   -8081.0775    3916.9966 0.0049932356   0.29620322   0.18452805 
 7910000    465.14811   -7310.5613   -4129.8715   -1080.7656   -3688.1776    1907.4304 0.0049922302   0.29620608   0.18451055 
 7912000    514.45791   -7310.3911   -6276.5818    2290.9518    -7750.278    5799.4772  0.004992158   0.29619922   0.18450237 
 7914000    468.82407   -7309.5881   -7636.3248   -78.613555   -3056.5772    5117.9618 0.0049910074   0.29619468   0.18452092 
 7916000    502.51887   -7308.0016    -7130.316    1387.8929   -5068.5021     6510.378  0.004989543   0.29618591   0.18451989 
 7918000    486.85593   -7310.9466   -7696.5165    1266.4346   -6033.0186    4576.0998 0.0049882793   0.29618771   0.18452637 
 7920000    518.35325   -7309.6966    -7714.094    1384.9307   -4687.9082    6317.6798 0.0049883367   0.29619556   0.18452996 
 7922000    508.93667    -7310.721   -5329.1376    1735.0471   -4245.6841    5550.2002 0.0049886948   0.29621252   0.18451637 
 7924000    503.35302   -7309.7378   -4262.1274    883.48816   -4631.9356    8053.8267 0.0049876744   0.29619719   0.18451523 
 7926000    504.98549   -7310.3556   -4690.1733    1348.4116   -6952.9317    4654.2578 0.0049865032   0.29618726    0.1845107 
 7928000    488.78769   -7308.4145   -5272.0886   -442.51201   -5824.8078    7628.4869 0.0049860508   0.29620406    0.1845082 
 7930000    490.05839   -7309.7715   -4884.3756    -2024.336   -8023.3999    6650.5647 0.0049863218   0.29621815   0.18451861 
 7932000    508.87684   -7311.3848   -5235.8423    -171.6909   -6020.3398    5234.8766  0.004986211   0.29622178    0.1845268 
 7934000    496.83992    -7311.394   -3873.7449    63.637288    -6860.372    5549.2728 0.0049849522   0.29620187   0.18452422 
 7936000    528.17053    -7307.347   -6117.8813    2385.5479   -9065.7632    6287.8254 0.0049831703   0.29621085   0.18451386 
 7938000     518.4853   -7312.0699   -4229.0095    3677.9299   -6491.3698      6091.39 0.0049824192   0.29623234    0.1845165 
 7940000    504.42415   -7310.6342   -2781.9573    178.25977   -5855.4016    3880.8005 0.0049802525   0.29620668    0.1845075 
 7942000    496.76691    -7309.183   -4778.6208    349.47972   -4451.8158    7649.2988 0.0049797941   0.29621091   0.18450982 
 7944000    529.33501   -7309.2472   -2032.2874    1021.1498   -5691.5036    4517.5756 0.0049804401   0.29621509   0.18452968 
 7946000    481.66902    -7309.778   -4440.7903   -794.19563   -5617.3633    3589.5148 0.0049807943   0.29623289    0.1845334 
 7948000    494.08597   -7310.9785    389.97834   -2094.3462    -3793.166    7828.5378 0.0049819205    0.2962242   0.18451537 
 7950000    463.49607   -7307.5257   -5093.3995    1191.6098   -7129.4591    4338.7821 0.0049802022    0.2962121   0.18450843 
 7952000    506.43467   -7310.1832   -1514.3483    760.10527   -5950.2105    9393.1098 0.0049802073   0.29622102   0.18451533 
 7954000    472.80742   -7310.6651   -6601.2076    523.65807    -5549.144    4627.9357 0.0049790469   0.29622906   0.18452226 
 7956000    481.33838   -7310.0966   -4876.7242    726.34375   -6724.1041     5221.989 0.0049777578   0.29620491   0.18453399 
 7958000    507.26094   -7310.0022   -6688.4869   -1002.2778   -4692.4064    1946.2545 0.0049794667   0.29620479   0.18453111 
 7960000    512.70164   -7309.3462   -6285.9913    2511.6495   -6318.6809     4158.904 0.0049804673   0.29622893   0.18452152 
 7962000    494.79104   -7307.5657   -6394.4318    1941.8569   -6485.8814    3810.4022 0.0049795277   0.29622298   0.18452162 
 7964000    533.20722   -7309.2468   -6554.8156    2136.5658   -6132.9219    3408.5915 0.0049783255   0.29621617   0.18453746 
 7966000    485.35511   -7310.7569   -3906.2309   -285.75601   -8583.6623    6700.6624 0.0049778889     0.296212   0.18453625 
 7968000    486.70841   -7309.2672   -5221.7154     653.8926    -6118.361    1988.5596 0.0049806252   0.29622196   0.18453617 
 7970000    508.04141   -7309.2691   -3719.9753    2108.3728   -7026.5214    7037.9297 0.0049792072   0.29622764   0.18452709 
 7972000    466.73023   -7311.5402   -4995.9806   -1463.7186   -4119.8413    3240.4465  0.004978058   0.29621961   0.18452076 
 7974000    523.21064   -7308.8042   -4332.2071    -82.76235   -9587.5927    4684.1348   0.00497775   0.29621559   0.18451477 
 7976000    489.71232   -7307.3619   -4710.6396    943.16475   -4007.0251    6177.1419 0.0049772664   0.29623177    0.1845163 
 7978000    511.45677   -7309.4423   -2275.9707    810.90428   -4548.2246    4851.3579 0.0049753722   0.29623458    0.1845293 
 7980000    494.57828    -7309.416   -2916.0929     -949.967   -5034.8785    3524.3482  0.004975302    0.2962284   0.18451711 
 7982000    468.95109   -7308.7571   -6005.6747   -117.34336    -4590.357    5589.2218 0.0049789331   0.29623603   0.18453159 
 7984000    473.90878   -7308.3027   -4935.1052    1858.5684   -8995.1523    2079.4298 0.0049786009   0.29624432   0.18453838 
 7986000    493.89899   -7309.6885   -3651.1758   -34.575107   -4495.3654    7146.9774 0.0049775567   0.29625987    0.1845381 
 7988000     460.0719   -7309.1135   -3446.4965     1658.638   -6818.0124    950.98122  0.004976261   0.29624182   0.18453651 
 7990000    486.53005   -7308.2872   -3421.9649    1040.6865   -7867.9281    3732.9313 0.0049759577   0.29623085   0.18451384 
 7992000    521.97607   -7310.3635   -1460.0708   -119.85616   -6429.8744    5887.7319 0.0049748862   0.29625218   0.18450692 
 7994000    495.69479   -7308.9854   -3108.5217   -185.67139   -8197.4142    2212.2635 0.0049774401   0.29626335   0.18451803 
 7996000    503.90693   -7307.3136    2427.6104   -530.96713   -3113.4222    1184.2028 0.0049806388   0.29626403   0.18451924 
 7998000    502.70688   -7309.5581   -4565.6071    3200.4781   -7099.8253    2908.5107 0.0049794085   0.29625822   0.18451418 
 8000000    485.54293   -7309.7757   -423.23029    1319.4112   -5296.9285    3409.8963 0.0049784453   0.29626961   0.18451788 
Loop time of 429338 on 1 procs for 8000000 steps with 400 atoms

Performance: 0.080 ns/day, 298.152 hours/ns, 18.633 timesteps/s
96.5% CPU use with 1 MPI tasks x no OpenMP threads

MPI task timing breakdown:
Section |  min time  |  avg time  |  max time  |%varavg| %total
---------------------------------------------------------------
Pair    | 4.2873e+05 | 4.2873e+05 | 4.2873e+05 |   0.0 | 99.86
Bond    | 121.97     | 121.97     | 121.97     |   0.0 |  0.03
Neigh   | 0.3886     | 0.3886     | 0.3886     |   0.0 |  0.00
Comm    | 299.75     | 299.75     | 299.75     |   0.0 |  0.07
Output  | 3.7064     | 3.7064     | 3.7064     |   0.0 |  0.00
Modify  | 106.34     | 106.34     | 106.34     |   0.0 |  0.02
Other   |            | 80.3       |            |       |  0.02

Nlocal:    400 ave 400 max 400 min
Histogram: 1 0 0 0 0 0 0 0 0 0
Nghost:    7061 ave 7061 max 7061 min
Histogram: 1 0 0 0 0 0 0 0 0 0
Neighs:    186019 ave 186019 max 186019 min
Histogram: 1 0 0 0 0 0 0 0 0 0

Total # of neighbors = 186019
Ave neighs/atom = 465.048
Ave special neighs/atom = 1.5
Neighbor list builds = 68
Dangerous builds = 0
variable     ndens equal count(all)/vol
print        "average viscosity: $v [Pa.s] @ $T K, ${ndens} /A^3"
average viscosity: 0.161921978143812 [Pa.s] @ 500 K, 0.00679845905000744 /A^3
Total wall time: 121:40:22
