4
Atoms. Timestep: 0
1 10 0 0
2 0.930064 0.67314 0.003587
3 3.61887 0.602433 0.01098
4 -1.57953 -0.87466 0.74759
4
Atoms. Timestep: 100
1 9.37591 0.0520297 0.00252631
2 1.15638 0.659848 0.00461436
3 3.84229 0.518687 0.0305626
4 -1.40517 -0.829652 0.724454
4
Atoms. Timestep: 200
1 9.35483 -0.000312127 0.00637497
2 1.14817 0.658139 -0.0321936
3 3.83653 0.619711 0.0454014
4 -1.37013 -0.876625 0.742574
4
Atoms. Timestep: 300
1 9.29376 -0.113671 -0.00988217
2 1.15577 0.602482 -0.153061
3 3.81568 0.86583 0.147387
4 -1.29579 -0.953728 0.777714
4
Atoms. Timestep: 400
1 9.20955 -0.179612 -0.0341515
2 1.20635 0.516076 -0.237275
3 3.80042 1.03984 0.243531
4 -1.24691 -0.975388 0.790052
4
Atoms. Timestep: 500
1 9.10355 -0.246785 -0.0649829
2 1.2972 0.391173 -0.297149
3 3.76992 1.23759 0.338423
4 -1.20127 -0.981061 0.785866
4
Atoms. Timestep: 600
1 8.94334 -0.323035 -0.102211
2 1.44912 0.228901 -0.301261
3 3.72281 1.47423 0.415816
4 -1.14587 -0.979183 0.749813
4
Atoms. Timestep: 700
1 8.74906 -0.403881 -0.137067
2 1.62856 0.0879735 -0.226796
3 3.66786 1.70721 0.446958
4 -1.07607 -0.990394 0.679061
4
Atoms. Timestep: 800
1 8.3789 -0.562125 -0.180679
2 1.91102 -0.0124424 -0.00819164
3 3.57474 2.05601 0.425848
4 -0.895253 -1.08053 0.52518
4
Atoms. Timestep: 900
1 7.91923 -0.786504 -0.199695
2 2.15817 0.0615695 0.172913
3 3.4657 2.40135 0.397576
4 -0.573689 -1.2755 0.391363
4
Atoms. Timestep: 1000
1 7.71609 -0.925218 -0.200549
2 2.25337 0.139209 0.198474
3 3.38317 2.57129 0.406589
4 -0.383224 -1.38436 0.357644
