ITEM: TIMESTEP
0
ITEM: NUMBER OF ENTRIES
1
ITEM: BOX BOUNDS pp pp pp
-40 40
-40 40
-40 40
ITEM: ENTRIES c_2[1] c_2[2] 
8.11338e-11 144.187 
ITEM: TIMESTEP
100
ITEM: NUMBER OF ENTRIES
1
ITEM: BOX BOUNDS pp pp pp
-40 40
-40 40
-40 40
ITEM: ENTRIES c_2[1] c_2[2] 
0.000125834 144.232 
ITEM: TIMESTEP
118
ITEM: NUMBER OF ENTRIES
1
ITEM: BOX BOUNDS pp pp pp
-40 40
-40 40
-40 40
ITEM: ENTRIES c_2[1] c_2[2] 
8.02449e-05 144.223 
ITEM: TIMESTEP
193
ITEM: NUMBER OF ENTRIES
1
ITEM: BOX BOUNDS pp pp pp
-40 40
-40 40
-40 40
ITEM: ENTRIES c_2[1] c_2[2] 
8.09941e-05 144.223 
ITEM: TIMESTEP
200
ITEM: NUMBER OF ENTRIES
1
ITEM: BOX BOUNDS pp pp pp
-40 40
-40 40
-40 40
ITEM: ENTRIES c_2[1] c_2[2] 
1.15625e-06 144.191 
ITEM: TIMESTEP
244
ITEM: NUMBER OF ENTRIES
1
ITEM: BOX BOUNDS pp pp pp
-40 40
-40 40
-40 40
ITEM: ENTRIES c_2[1] c_2[2] 
8.14434e-05 144.223 
ITEM: TIMESTEP
300
ITEM: NUMBER OF ENTRIES
1
ITEM: BOX BOUNDS pp pp pp
-40 40
-40 40
-40 40
ITEM: ENTRIES c_2[1] c_2[2] 
8.1273e-05 144.223 
ITEM: TIMESTEP
302
ITEM: NUMBER OF ENTRIES
1
ITEM: BOX BOUNDS pp pp pp
-40 40
-40 40
-40 40
ITEM: ENTRIES c_2[1] c_2[2] 
8.12873e-05 144.223 
ITEM: TIMESTEP
363
ITEM: NUMBER OF ENTRIES
1
ITEM: BOX BOUNDS pp pp pp
-40 40
-40 40
-40 40
ITEM: ENTRIES c_2[1] c_2[2] 
8.09378e-05 144.223 
ITEM: TIMESTEP
400
ITEM: NUMBER OF ENTRIES
1
ITEM: BOX BOUNDS pp pp pp
-40 40
-40 40
-40 40
ITEM: ENTRIES c_2[1] c_2[2] 
0.000132923 144.234 
ITEM: TIMESTEP
441
ITEM: NUMBER OF ENTRIES
1
ITEM: BOX BOUNDS pp pp pp
-40 40
-40 40
-40 40
ITEM: ENTRIES c_2[1] c_2[2] 
8.06626e-05 144.223 
ITEM: TIMESTEP
500
ITEM: NUMBER OF ENTRIES
1
ITEM: BOX BOUNDS pp pp pp
-40 40
-40 40
-40 40
ITEM: ENTRIES c_2[1] c_2[2] 
9.16845e-05 144.226 
ITEM: TIMESTEP
509
ITEM: NUMBER OF ENTRIES
1
ITEM: BOX BOUNDS pp pp pp
-40 40
-40 40
-40 40
ITEM: ENTRIES c_2[1] c_2[2] 
8.10475e-05 144.223 
ITEM: TIMESTEP
600
ITEM: NUMBER OF ENTRIES
1
ITEM: BOX BOUNDS pp pp pp
-40 40
-40 40
-40 40
ITEM: ENTRIES c_2[1] c_2[2] 
7.4195e-05 144.222 
ITEM: TIMESTEP
605
ITEM: NUMBER OF ENTRIES
1
ITEM: BOX BOUNDS pp pp pp
-40 40
-40 40
-40 40
ITEM: ENTRIES c_2[1] c_2[2] 
8.09522e-05 144.223 
ITEM: TIMESTEP
700
ITEM: NUMBER OF ENTRIES
1
ITEM: BOX BOUNDS pp pp pp
-40 40
-40 40
-40 40
ITEM: ENTRIES c_2[1] c_2[2] 
3.25874e-05 144.21 
ITEM: TIMESTEP
732
ITEM: NUMBER OF ENTRIES
1
ITEM: BOX BOUNDS pp pp pp
-40 40
-40 40
-40 40
ITEM: ENTRIES c_2[1] c_2[2] 
8.09454e-05 144.223 
ITEM: TIMESTEP
800
ITEM: NUMBER OF ENTRIES
1
ITEM: BOX BOUNDS pp pp pp
-40 40
-40 40
-40 40
ITEM: ENTRIES c_2[1] c_2[2] 
0.000710614 144.295 
ITEM: TIMESTEP
846
ITEM: NUMBER OF ENTRIES
1
ITEM: BOX BOUNDS pp pp pp
-40 40
-40 40
-40 40
ITEM: ENTRIES c_2[1] c_2[2] 
8.12441e-05 144.223 
ITEM: TIMESTEP
900
ITEM: NUMBER OF ENTRIES
1
ITEM: BOX BOUNDS pp pp pp
-40 40
-40 40
-40 40
ITEM: ENTRIES c_2[1] c_2[2] 
0.00124435 144.33 
ITEM: TIMESTEP
980
ITEM: NUMBER OF ENTRIES
1
ITEM: BOX BOUNDS pp pp pp
-40 40
-40 40
-40 40
ITEM: ENTRIES c_2[1] c_2[2] 
8.09949e-05 144.223 
ITEM: TIMESTEP
1000
ITEM: NUMBER OF ENTRIES
1
ITEM: BOX BOUNDS pp pp pp
-40 40
-40 40
-40 40
ITEM: ENTRIES c_2[1] c_2[2] 
9.76093e-07 144.191 
ITEM: TIMESTEP
1100
ITEM: NUMBER OF ENTRIES
1
ITEM: BOX BOUNDS pp pp pp
-40 40
-40 40
-40 40
ITEM: ENTRIES c_2[1] c_2[2] 
8.62166e-05 144.225 
ITEM: TIMESTEP
1143
ITEM: NUMBER OF ENTRIES
1
ITEM: BOX BOUNDS pp pp pp
-40 40
-40 40
-40 40
ITEM: ENTRIES c_2[1] c_2[2] 
8.08655e-05 144.223 
ITEM: TIMESTEP
1200
ITEM: NUMBER OF ENTRIES
1
ITEM: BOX BOUNDS pp pp pp
-40 40
-40 40
-40 40
ITEM: ENTRIES c_2[1] c_2[2] 
0.000440903 144.102 
ITEM: TIMESTEP
1300
ITEM: NUMBER OF ENTRIES
1
ITEM: BOX BOUNDS pp pp pp
-40 40
-40 40
-40 40
ITEM: ENTRIES c_2[1] c_2[2] 
0.000132983 144.234 
ITEM: TIMESTEP
1330
ITEM: NUMBER OF ENTRIES
1
ITEM: BOX BOUNDS pp pp pp
-40 40
-40 40
-40 40
ITEM: ENTRIES c_2[1] c_2[2] 
8.11138e-05 144.223 
ITEM: TIMESTEP
1400
ITEM: NUMBER OF ENTRIES
1
ITEM: BOX BOUNDS pp pp pp
-40 40
-40 40
-40 40
ITEM: ENTRIES c_2[1] c_2[2] 
1.43241e-06 144.182 
ITEM: TIMESTEP
1500
ITEM: NUMBER OF ENTRIES
1
ITEM: BOX BOUNDS pp pp pp
-40 40
-40 40
-40 40
ITEM: ENTRIES c_2[1] c_2[2] 
4.21632e-05 144.161 
ITEM: TIMESTEP
1600
ITEM: NUMBER OF ENTRIES
1
ITEM: BOX BOUNDS pp pp pp
-40 40
-40 40
-40 40
ITEM: ENTRIES c_2[1] c_2[2] 
0.000538738 144.281 
ITEM: TIMESTEP
1643
ITEM: NUMBER OF ENTRIES
1
ITEM: BOX BOUNDS pp pp pp
-40 40
-40 40
-40 40
ITEM: ENTRIES c_2[1] c_2[2] 
8.0909e-05 144.223 
ITEM: TIMESTEP
1700
ITEM: NUMBER OF ENTRIES
1
ITEM: BOX BOUNDS pp pp pp
-40 40
-40 40
-40 40
ITEM: ENTRIES c_2[1] c_2[2] 
6.08789e-05 144.155 
ITEM: TIMESTEP
1800
ITEM: NUMBER OF ENTRIES
1
ITEM: BOX BOUNDS pp pp pp
-40 40
-40 40
-40 40
ITEM: ENTRIES c_2[1] c_2[2] 
3.12143e-05 144.21 
ITEM: TIMESTEP
1900
ITEM: NUMBER OF ENTRIES
1
ITEM: BOX BOUNDS pp pp pp
-40 40
-40 40
-40 40
ITEM: ENTRIES c_2[1] c_2[2] 
8.93302e-06 144.175 
ITEM: TIMESTEP
2000
ITEM: NUMBER OF ENTRIES
1
ITEM: BOX BOUNDS pp pp pp
-40 40
-40 40
-40 40
ITEM: ENTRIES c_2[1] c_2[2] 
0.00443014 143.917 
ITEM: TIMESTEP
2100
ITEM: NUMBER OF ENTRIES
1
ITEM: BOX BOUNDS pp pp pp
-40 40
-40 40
-40 40
ITEM: ENTRIES c_2[1] c_2[2] 
2.42967e-05 144.207 
ITEM: TIMESTEP
2200
ITEM: NUMBER OF ENTRIES
1
ITEM: BOX BOUNDS pp pp pp
-40 40
-40 40
-40 40
ITEM: ENTRIES c_2[1] c_2[2] 
7.08137e-05 144.221 
ITEM: TIMESTEP
2300
ITEM: NUMBER OF ENTRIES
1
ITEM: BOX BOUNDS pp pp pp
-40 40
-40 40
-40 40
ITEM: ENTRIES c_2[1] c_2[2] 
7.99289e-05 144.223 
ITEM: TIMESTEP
2400
ITEM: NUMBER OF ENTRIES
1
ITEM: BOX BOUNDS pp pp pp
-40 40
-40 40
-40 40
ITEM: ENTRIES c_2[1] c_2[2] 
0.000179045 144.241 
ITEM: TIMESTEP
2500
ITEM: NUMBER OF ENTRIES
1
ITEM: BOX BOUNDS pp pp pp
-40 40
-40 40
-40 40
ITEM: ENTRIES c_2[1] c_2[2] 
0.000102815 144.228 
ITEM: TIMESTEP
2543
ITEM: NUMBER OF ENTRIES
1
ITEM: BOX BOUNDS pp pp pp
-40 40
-40 40
-40 40
ITEM: ENTRIES c_2[1] c_2[2] 
2.08238e-10 144.187 
ITEM: TIMESTEP
2600
ITEM: NUMBER OF ENTRIES
1
ITEM: BOX BOUNDS pp pp pp
-40 40
-40 40
-40 40
ITEM: ENTRIES c_2[1] c_2[2] 
0.00088815 144.308 
ITEM: TIMESTEP
2700
ITEM: NUMBER OF ENTRIES
1
ITEM: BOX BOUNDS pp pp pp
-40 40
-40 40
-40 40
ITEM: ENTRIES c_2[1] c_2[2] 
9.87017e-06 144.174 
ITEM: TIMESTEP
2800
ITEM: NUMBER OF ENTRIES
1
ITEM: BOX BOUNDS pp pp pp
-40 40
-40 40
-40 40
ITEM: ENTRIES c_2[1] c_2[2] 
0.00186054 144.362 
ITEM: TIMESTEP
2900
ITEM: NUMBER OF ENTRIES
1
ITEM: BOX BOUNDS pp pp pp
-40 40
-40 40
-40 40
ITEM: ENTRIES c_2[1] c_2[2] 
6.71445e-07 144.184 
ITEM: TIMESTEP
3000
ITEM: NUMBER OF ENTRIES
1
ITEM: BOX BOUNDS pp pp pp
-40 40
-40 40
-40 40
ITEM: ENTRIES c_2[1] c_2[2] 
8.09532e-07 144.191 
ITEM: TIMESTEP
3068
ITEM: NUMBER OF ENTRIES
1
ITEM: BOX BOUNDS pp pp pp
-40 40
-40 40
-40 40
ITEM: ENTRIES c_2[1] c_2[2] 
1.6468e-11 144.187 
ITEM: TIMESTEP
3100
ITEM: NUMBER OF ENTRIES
1
ITEM: BOX BOUNDS pp pp pp
-40 40
-40 40
-40 40
ITEM: ENTRIES c_2[1] c_2[2] 
0.00233528 143.991 
ITEM: TIMESTEP
3200
ITEM: NUMBER OF ENTRIES
1
ITEM: BOX BOUNDS pp pp pp
-40 40
-40 40
-40 40
ITEM: ENTRIES c_2[1] c_2[2] 
4.33073e-06 144.195 
ITEM: TIMESTEP
3300
ITEM: NUMBER OF ENTRIES
1
ITEM: BOX BOUNDS pp pp pp
-40 40
-40 40
-40 40
ITEM: ENTRIES c_2[1] c_2[2] 
2.69795e-07 144.189 
ITEM: TIMESTEP
3400
ITEM: NUMBER OF ENTRIES
1
ITEM: BOX BOUNDS pp pp pp
-40 40
-40 40
-40 40
ITEM: ENTRIES c_2[1] c_2[2] 
6.40508e-09 144.187 
ITEM: TIMESTEP
3410
ITEM: NUMBER OF ENTRIES
1
ITEM: BOX BOUNDS pp pp pp
-40 40
-40 40
-40 40
ITEM: ENTRIES c_2[1] c_2[2] 
1.33763e-09 144.187 
ITEM: TIMESTEP
3500
ITEM: NUMBER OF ENTRIES
1
ITEM: BOX BOUNDS pp pp pp
-40 40
-40 40
-40 40
ITEM: ENTRIES c_2[1] c_2[2] 
0.000176947 144.133 
ITEM: TIMESTEP
3600
ITEM: NUMBER OF ENTRIES
1
ITEM: BOX BOUNDS pp pp pp
-40 40
-40 40
-40 40
ITEM: ENTRIES c_2[1] c_2[2] 
6.33804e-08 144.186 
ITEM: TIMESTEP
3642
ITEM: NUMBER OF ENTRIES
1
ITEM: BOX BOUNDS pp pp pp
-40 40
-40 40
-40 40
ITEM: ENTRIES c_2[1] c_2[2] 
8.39985e-09 144.187 
ITEM: TIMESTEP
3700
ITEM: NUMBER OF ENTRIES
1
ITEM: BOX BOUNDS pp pp pp
-40 40
-40 40
-40 40
ITEM: ENTRIES c_2[1] c_2[2] 
9.8888e-06 144.2 
ITEM: TIMESTEP
3800
ITEM: NUMBER OF ENTRIES
1
ITEM: BOX BOUNDS pp pp pp
-40 40
-40 40
-40 40
ITEM: ENTRIES c_2[1] c_2[2] 
1.64814e-10 144.187 
ITEM: TIMESTEP
3813
ITEM: NUMBER OF ENTRIES
1
ITEM: BOX BOUNDS pp pp pp
-40 40
-40 40
-40 40
ITEM: ENTRIES c_2[1] c_2[2] 
9.04557e-11 144.187 
ITEM: TIMESTEP
3900
ITEM: NUMBER OF ENTRIES
1
ITEM: BOX BOUNDS pp pp pp
-40 40
-40 40
-40 40
ITEM: ENTRIES c_2[1] c_2[2] 
2.88391e-13 144.187 
ITEM: TIMESTEP
3939
ITEM: NUMBER OF ENTRIES
1
ITEM: BOX BOUNDS pp pp pp
-40 40
-40 40
-40 40
ITEM: ENTRIES c_2[1] c_2[2] 
4.03104e-10 144.187 
ITEM: TIMESTEP
4000
ITEM: NUMBER OF ENTRIES
1
ITEM: BOX BOUNDS pp pp pp
-40 40
-40 40
-40 40
ITEM: ENTRIES c_2[1] c_2[2] 
2.29932e-08 144.188 
ITEM: TIMESTEP
4002
ITEM: NUMBER OF ENTRIES
1
ITEM: BOX BOUNDS pp pp pp
-40 40
-40 40
-40 40
ITEM: ENTRIES c_2[1] c_2[2] 
2.74623e-10 144.187 
ITEM: TIMESTEP
4100
ITEM: NUMBER OF ENTRIES
1
ITEM: BOX BOUNDS pp pp pp
-40 40
-40 40
-40 40
ITEM: ENTRIES c_2[1] c_2[2] 
5.32561e-09 144.187 
ITEM: TIMESTEP
4130
ITEM: NUMBER OF ENTRIES
1
ITEM: BOX BOUNDS pp pp pp
-40 40
-40 40
-40 40
ITEM: ENTRIES c_2[1] c_2[2] 
3.92228e-11 144.187 
ITEM: TIMESTEP
4200
ITEM: NUMBER OF ENTRIES
1
ITEM: BOX BOUNDS pp pp pp
-40 40
-40 40
-40 40
ITEM: ENTRIES c_2[1] c_2[2] 
0.000106796 144.229 
ITEM: TIMESTEP
4280
ITEM: NUMBER OF ENTRIES
1
ITEM: BOX BOUNDS pp pp pp
-40 40
-40 40
-40 40
ITEM: ENTRIES c_2[1] c_2[2] 
5.90212e-11 144.187 
ITEM: TIMESTEP
4300
ITEM: NUMBER OF ENTRIES
1
ITEM: BOX BOUNDS pp pp pp
-40 40
-40 40
-40 40
ITEM: ENTRIES c_2[1] c_2[2] 
0.00442799 144.456 
ITEM: TIMESTEP
4400
ITEM: NUMBER OF ENTRIES
1
ITEM: BOX BOUNDS pp pp pp
-40 40
-40 40
-40 40
ITEM: ENTRIES c_2[1] c_2[2] 
0.000131185 144.233 
ITEM: TIMESTEP
4498
ITEM: NUMBER OF ENTRIES
1
ITEM: BOX BOUNDS pp pp pp
-40 40
-40 40
-40 40
ITEM: ENTRIES c_2[1] c_2[2] 
6.94617e-10 144.187 
ITEM: TIMESTEP
4500
ITEM: NUMBER OF ENTRIES
1
ITEM: BOX BOUNDS pp pp pp
-40 40
-40 40
-40 40
ITEM: ENTRIES c_2[1] c_2[2] 
0.0551797 143.235 
ITEM: TIMESTEP
4600
ITEM: NUMBER OF ENTRIES
1
ITEM: BOX BOUNDS pp pp pp
-40 40
-40 40
-40 40
ITEM: ENTRIES c_2[1] c_2[2] 
3.04747e-05 144.165 
ITEM: TIMESTEP
4700
ITEM: NUMBER OF ENTRIES
1
ITEM: BOX BOUNDS pp pp pp
-40 40
-40 40
-40 40
ITEM: ENTRIES c_2[1] c_2[2] 
1.31182e-08 144.186 
ITEM: TIMESTEP
4702
ITEM: NUMBER OF ENTRIES
1
ITEM: BOX BOUNDS pp pp pp
-40 40
-40 40
-40 40
ITEM: ENTRIES c_2[1] c_2[2] 
2.47291e-11 144.187 
ITEM: TIMESTEP
4800
ITEM: NUMBER OF ENTRIES
1
ITEM: BOX BOUNDS pp pp pp
-40 40
-40 40
-40 40
ITEM: ENTRIES c_2[1] c_2[2] 
3.20474e-06 144.18 
ITEM: TIMESTEP
4900
ITEM: NUMBER OF ENTRIES
1
ITEM: BOX BOUNDS pp pp pp
-40 40
-40 40
-40 40
ITEM: ENTRIES c_2[1] c_2[2] 
6.69035e-08 144.188 
ITEM: TIMESTEP
4969
ITEM: NUMBER OF ENTRIES
1
ITEM: BOX BOUNDS pp pp pp
-40 40
-40 40
-40 40
ITEM: ENTRIES c_2[1] c_2[2] 
3.66321e-09 144.187 
ITEM: TIMESTEP
5000
ITEM: NUMBER OF ENTRIES
1
ITEM: BOX BOUNDS pp pp pp
-40 40
-40 40
-40 40
ITEM: ENTRIES c_2[1] c_2[2] 
4.23492e-05 144.213 
ITEM: TIMESTEP
5100
ITEM: NUMBER OF ENTRIES
1
ITEM: BOX BOUNDS pp pp pp
-40 40
-40 40
-40 40
ITEM: ENTRIES c_2[1] c_2[2] 
0.000117715 144.231 
ITEM: TIMESTEP
5200
ITEM: NUMBER OF ENTRIES
1
ITEM: BOX BOUNDS pp pp pp
-40 40
-40 40
-40 40
ITEM: ENTRIES c_2[1] c_2[2] 
4.52753e-07 144.19 
ITEM: TIMESTEP
5270
ITEM: NUMBER OF ENTRIES
1
ITEM: BOX BOUNDS pp pp pp
-40 40
-40 40
-40 40
ITEM: ENTRIES c_2[1] c_2[2] 
1.95706e-09 144.187 
ITEM: TIMESTEP
5300
ITEM: NUMBER OF ENTRIES
1
ITEM: BOX BOUNDS pp pp pp
-40 40
-40 40
-40 40
ITEM: ENTRIES c_2[1] c_2[2] 
0.000332858 144.261 
ITEM: TIMESTEP
5400
ITEM: NUMBER OF ENTRIES
1
ITEM: BOX BOUNDS pp pp pp
-40 40
-40 40
-40 40
ITEM: ENTRIES c_2[1] c_2[2] 
2.2886e-08 144.188 
ITEM: TIMESTEP
5427
ITEM: NUMBER OF ENTRIES
1
ITEM: BOX BOUNDS pp pp pp
-40 40
-40 40
-40 40
ITEM: ENTRIES c_2[1] c_2[2] 
2.06301e-11 144.187 
ITEM: TIMESTEP
5500
ITEM: NUMBER OF ENTRIES
1
ITEM: BOX BOUNDS pp pp pp
-40 40
-40 40
-40 40
ITEM: ENTRIES c_2[1] c_2[2] 
0.000567351 144.09 
ITEM: TIMESTEP
5600
ITEM: NUMBER OF ENTRIES
1
ITEM: BOX BOUNDS pp pp pp
-40 40
-40 40
-40 40
ITEM: ENTRIES c_2[1] c_2[2] 
0.00035724 144.263 
ITEM: TIMESTEP
5700
ITEM: NUMBER OF ENTRIES
1
ITEM: BOX BOUNDS pp pp pp
-40 40
-40 40
-40 40
ITEM: ENTRIES c_2[1] c_2[2] 
9.87805e-05 144.147 
ITEM: TIMESTEP
5800
ITEM: NUMBER OF ENTRIES
1
ITEM: BOX BOUNDS pp pp pp
-40 40
-40 40
-40 40
ITEM: ENTRIES c_2[1] c_2[2] 
3.77428e-09 144.187 
ITEM: TIMESTEP
5820
ITEM: NUMBER OF ENTRIES
1
ITEM: BOX BOUNDS pp pp pp
-40 40
-40 40
-40 40
ITEM: ENTRIES c_2[1] c_2[2] 
8.05547e-11 144.187 
ITEM: TIMESTEP
5900
ITEM: NUMBER OF ENTRIES
1
ITEM: BOX BOUNDS pp pp pp
-40 40
-40 40
-40 40
ITEM: ENTRIES c_2[1] c_2[2] 
6.48767e-06 144.197 
ITEM: TIMESTEP
6000
ITEM: NUMBER OF ENTRIES
1
ITEM: BOX BOUNDS pp pp pp
-40 40
-40 40
-40 40
ITEM: ENTRIES c_2[1] c_2[2] 
1.18338e-06 144.191 
ITEM: TIMESTEP
6100
ITEM: NUMBER OF ENTRIES
1
ITEM: BOX BOUNDS pp pp pp
-40 40
-40 40
-40 40
ITEM: ENTRIES c_2[1] c_2[2] 
0.000690443 144.293 
ITEM: TIMESTEP
6200
ITEM: NUMBER OF ENTRIES
1
ITEM: BOX BOUNDS pp pp pp
-40 40
-40 40
-40 40
ITEM: ENTRIES c_2[1] c_2[2] 
1.94632e-06 144.193 
ITEM: TIMESTEP
6300
ITEM: NUMBER OF ENTRIES
1
ITEM: BOX BOUNDS pp pp pp
-40 40
-40 40
-40 40
ITEM: ENTRIES c_2[1] c_2[2] 
4.54806e-05 144.214 
ITEM: TIMESTEP
6400
ITEM: NUMBER OF ENTRIES
1
ITEM: BOX BOUNDS pp pp pp
-40 40
-40 40
-40 40
ITEM: ENTRIES c_2[1] c_2[2] 
4.4081e-08 144.186 
ITEM: TIMESTEP
6500
ITEM: NUMBER OF ENTRIES
1
ITEM: BOX BOUNDS pp pp pp
-40 40
-40 40
-40 40
ITEM: ENTRIES c_2[1] c_2[2] 
5.75164e-06 144.197 
ITEM: TIMESTEP
6600
ITEM: NUMBER OF ENTRIES
1
ITEM: BOX BOUNDS pp pp pp
-40 40
-40 40
-40 40
ITEM: ENTRIES c_2[1] c_2[2] 
2.67233e-07 144.185 
ITEM: TIMESTEP
6665
ITEM: NUMBER OF ENTRIES
1
ITEM: BOX BOUNDS pp pp pp
-40 40
-40 40
-40 40
ITEM: ENTRIES c_2[1] c_2[2] 
2.38494e-10 144.187 
ITEM: TIMESTEP
6700
ITEM: NUMBER OF ENTRIES
1
ITEM: BOX BOUNDS pp pp pp
-40 40
-40 40
-40 40
ITEM: ENTRIES c_2[1] c_2[2] 
0.000624186 144.288 
ITEM: TIMESTEP
6800
ITEM: NUMBER OF ENTRIES
1
ITEM: BOX BOUNDS pp pp pp
-40 40
-40 40
-40 40
ITEM: ENTRIES c_2[1] c_2[2] 
9.67758e-05 144.147 
ITEM: TIMESTEP
6900
ITEM: NUMBER OF ENTRIES
1
ITEM: BOX BOUNDS pp pp pp
-40 40
-40 40
-40 40
ITEM: ENTRIES c_2[1] c_2[2] 
4.83212e-06 144.196 
ITEM: TIMESTEP
7000
ITEM: NUMBER OF ENTRIES
1
ITEM: BOX BOUNDS pp pp pp
-40 40
-40 40
-40 40
ITEM: ENTRIES c_2[1] c_2[2] 
0.000228996 144.248 
ITEM: TIMESTEP
7100
ITEM: NUMBER OF ENTRIES
1
ITEM: BOX BOUNDS pp pp pp
-40 40
-40 40
-40 40
ITEM: ENTRIES c_2[1] c_2[2] 
6.98869e-07 144.19 
ITEM: TIMESTEP
7185
ITEM: NUMBER OF ENTRIES
1
ITEM: BOX BOUNDS pp pp pp
-40 40
-40 40
-40 40
ITEM: ENTRIES c_2[1] c_2[2] 
1.74856e-11 144.187 
ITEM: TIMESTEP
7200
ITEM: NUMBER OF ENTRIES
1
ITEM: BOX BOUNDS pp pp pp
-40 40
-40 40
-40 40
ITEM: ENTRIES c_2[1] c_2[2] 
1.94048e-05 144.169 
ITEM: TIMESTEP
7300
ITEM: NUMBER OF ENTRIES
1
ITEM: BOX BOUNDS pp pp pp
-40 40
-40 40
-40 40
ITEM: ENTRIES c_2[1] c_2[2] 
5.88862e-06 144.197 
ITEM: TIMESTEP
7400
ITEM: NUMBER OF ENTRIES
1
ITEM: BOX BOUNDS pp pp pp
-40 40
-40 40
-40 40
ITEM: ENTRIES c_2[1] c_2[2] 
9.44762e-05 144.148 
ITEM: TIMESTEP
7500
ITEM: NUMBER OF ENTRIES
1
ITEM: BOX BOUNDS pp pp pp
-40 40
-40 40
-40 40
ITEM: ENTRIES c_2[1] c_2[2] 
1.65439e-08 144.186 
ITEM: TIMESTEP
7542
ITEM: NUMBER OF ENTRIES
1
ITEM: BOX BOUNDS pp pp pp
-40 40
-40 40
-40 40
ITEM: ENTRIES c_2[1] c_2[2] 
3.08103e-09 144.187 
ITEM: TIMESTEP
7600
ITEM: NUMBER OF ENTRIES
1
ITEM: BOX BOUNDS pp pp pp
-40 40
-40 40
-40 40
ITEM: ENTRIES c_2[1] c_2[2] 
0.000286477 144.118 
ITEM: TIMESTEP
7700
ITEM: NUMBER OF ENTRIES
1
ITEM: BOX BOUNDS pp pp pp
-40 40
-40 40
-40 40
ITEM: ENTRIES c_2[1] c_2[2] 
1.01477e-06 144.191 
ITEM: TIMESTEP
7800
ITEM: NUMBER OF ENTRIES
1
ITEM: BOX BOUNDS pp pp pp
-40 40
-40 40
-40 40
ITEM: ENTRIES c_2[1] c_2[2] 
8.47089e-07 144.183 
ITEM: TIMESTEP
7899
ITEM: NUMBER OF ENTRIES
1
ITEM: BOX BOUNDS pp pp pp
-40 40
-40 40
-40 40
ITEM: ENTRIES c_2[1] c_2[2] 
4.95594e-11 144.187 
ITEM: TIMESTEP
7900
ITEM: NUMBER OF ENTRIES
1
ITEM: BOX BOUNDS pp pp pp
-40 40
-40 40
-40 40
ITEM: ENTRIES c_2[1] c_2[2] 
4.95594e-11 144.187 
ITEM: TIMESTEP
8000
ITEM: NUMBER OF ENTRIES
1
ITEM: BOX BOUNDS pp pp pp
-40 40
-40 40
-40 40
ITEM: ENTRIES c_2[1] c_2[2] 
4.01367e-06 144.195 
ITEM: TIMESTEP
8100
ITEM: NUMBER OF ENTRIES
1
ITEM: BOX BOUNDS pp pp pp
-40 40
-40 40
-40 40
ITEM: ENTRIES c_2[1] c_2[2] 
2.26288e-07 144.185 
ITEM: TIMESTEP
8136
ITEM: NUMBER OF ENTRIES
1
ITEM: BOX BOUNDS pp pp pp
-40 40
-40 40
-40 40
ITEM: ENTRIES c_2[1] c_2[2] 
2.52089e-10 144.187 
ITEM: TIMESTEP
8200
ITEM: NUMBER OF ENTRIES
1
ITEM: BOX BOUNDS pp pp pp
-40 40
-40 40
-40 40
ITEM: ENTRIES c_2[1] c_2[2] 
3.15579e-09 144.187 
ITEM: TIMESTEP
8300
ITEM: NUMBER OF ENTRIES
1
ITEM: BOX BOUNDS pp pp pp
-40 40
-40 40
-40 40
ITEM: ENTRIES c_2[1] c_2[2] 
6.24081e-11 144.187 
ITEM: TIMESTEP
8316
ITEM: NUMBER OF ENTRIES
1
ITEM: BOX BOUNDS pp pp pp
-40 40
-40 40
-40 40
ITEM: ENTRIES c_2[1] c_2[2] 
3.54262e-09 144.187 
ITEM: TIMESTEP
8400
ITEM: NUMBER OF ENTRIES
1
ITEM: BOX BOUNDS pp pp pp
-40 40
-40 40
-40 40
ITEM: ENTRIES c_2[1] c_2[2] 
1.01502e-07 144.186 
ITEM: TIMESTEP
8452
ITEM: NUMBER OF ENTRIES
1
ITEM: BOX BOUNDS pp pp pp
-40 40
-40 40
-40 40
ITEM: ENTRIES c_2[1] c_2[2] 
1.89732e-08 144.187 
ITEM: TIMESTEP
8500
ITEM: NUMBER OF ENTRIES
1
ITEM: BOX BOUNDS pp pp pp
-40 40
-40 40
-40 40
ITEM: ENTRIES c_2[1] c_2[2] 
2.01471e-08 144.186 
ITEM: TIMESTEP
8531
ITEM: NUMBER OF ENTRIES
1
ITEM: BOX BOUNDS pp pp pp
-40 40
-40 40
-40 40
ITEM: ENTRIES c_2[1] c_2[2] 
7.30674e-09 144.187 
ITEM: TIMESTEP
8600
ITEM: NUMBER OF ENTRIES
1
ITEM: BOX BOUNDS pp pp pp
-40 40
-40 40
-40 40
ITEM: ENTRIES c_2[1] c_2[2] 
6.21365e-06 144.177 
ITEM: TIMESTEP
8700
ITEM: NUMBER OF ENTRIES
1
ITEM: BOX BOUNDS pp pp pp
-40 40
-40 40
-40 40
ITEM: ENTRIES c_2[1] c_2[2] 
9.55411e-10 144.187 
ITEM: TIMESTEP
8800
ITEM: NUMBER OF ENTRIES
1
ITEM: BOX BOUNDS pp pp pp
-40 40
-40 40
-40 40
ITEM: ENTRIES c_2[1] c_2[2] 
3.99268e-08 144.188 
ITEM: TIMESTEP
8867
ITEM: NUMBER OF ENTRIES
1
ITEM: BOX BOUNDS pp pp pp
-40 40
-40 40
-40 40
ITEM: ENTRIES c_2[1] c_2[2] 
1.39747e-09 144.187 
ITEM: TIMESTEP
8900
ITEM: NUMBER OF ENTRIES
1
ITEM: BOX BOUNDS pp pp pp
-40 40
-40 40
-40 40
ITEM: ENTRIES c_2[1] c_2[2] 
3.15829e-05 144.21 
ITEM: TIMESTEP
9000
ITEM: NUMBER OF ENTRIES
1
ITEM: BOX BOUNDS pp pp pp
-40 40
-40 40
-40 40
ITEM: ENTRIES c_2[1] c_2[2] 
2.49675e-08 144.188 
ITEM: TIMESTEP
9048
ITEM: NUMBER OF ENTRIES
1
ITEM: BOX BOUNDS pp pp pp
-40 40
-40 40
-40 40
ITEM: ENTRIES c_2[1] c_2[2] 
8.82524e-10 144.187 
ITEM: TIMESTEP
9100
ITEM: NUMBER OF ENTRIES
1
ITEM: BOX BOUNDS pp pp pp
-40 40
-40 40
-40 40
ITEM: ENTRIES c_2[1] c_2[2] 
5.02862e-05 144.216 
ITEM: TIMESTEP
9200
ITEM: NUMBER OF ENTRIES
1
ITEM: BOX BOUNDS pp pp pp
-40 40
-40 40
-40 40
ITEM: ENTRIES c_2[1] c_2[2] 
1.17105e-08 144.186 
ITEM: TIMESTEP
9300
ITEM: NUMBER OF ENTRIES
1
ITEM: BOX BOUNDS pp pp pp
-40 40
-40 40
-40 40
ITEM: ENTRIES c_2[1] c_2[2] 
1.22508e-07 144.185 
ITEM: TIMESTEP
9338
ITEM: NUMBER OF ENTRIES
1
ITEM: BOX BOUNDS pp pp pp
-40 40
-40 40
-40 40
ITEM: ENTRIES c_2[1] c_2[2] 
5.70091e-12 144.187 
ITEM: TIMESTEP
9400
ITEM: NUMBER OF ENTRIES
1
ITEM: BOX BOUNDS pp pp pp
-40 40
-40 40
-40 40
ITEM: ENTRIES c_2[1] c_2[2] 
2.69517e-05 144.208 
ITEM: TIMESTEP
9500
ITEM: NUMBER OF ENTRIES
1
ITEM: BOX BOUNDS pp pp pp
-40 40
-40 40
-40 40
ITEM: ENTRIES c_2[1] c_2[2] 
0.000742748 144.297 
ITEM: TIMESTEP
9600
ITEM: NUMBER OF ENTRIES
1
ITEM: BOX BOUNDS pp pp pp
-40 40
-40 40
-40 40
ITEM: ENTRIES c_2[1] c_2[2] 
4.42897e-06 144.195 
ITEM: TIMESTEP
9700
ITEM: NUMBER OF ENTRIES
1
ITEM: BOX BOUNDS pp pp pp
-40 40
-40 40
-40 40
ITEM: ENTRIES c_2[1] c_2[2] 
1.75985e-10 144.187 
ITEM: TIMESTEP
9705
ITEM: NUMBER OF ENTRIES
1
ITEM: BOX BOUNDS pp pp pp
-40 40
-40 40
-40 40
ITEM: ENTRIES c_2[1] c_2[2] 
3.98681e-13 144.187 
ITEM: TIMESTEP
9800
ITEM: NUMBER OF ENTRIES
1
ITEM: BOX BOUNDS pp pp pp
-40 40
-40 40
-40 40
ITEM: ENTRIES c_2[1] c_2[2] 
2.38924e-05 144.207 
ITEM: TIMESTEP
9859
ITEM: NUMBER OF ENTRIES
1
ITEM: BOX BOUNDS pp pp pp
-40 40
-40 40
-40 40
ITEM: ENTRIES c_2[1] c_2[2] 
7.69923e-10 144.187 
ITEM: TIMESTEP
9900
ITEM: NUMBER OF ENTRIES
1
ITEM: BOX BOUNDS pp pp pp
-40 40
-40 40
-40 40
ITEM: ENTRIES c_2[1] c_2[2] 
0.00119085 144.327 
ITEM: TIMESTEP
10000
ITEM: NUMBER OF ENTRIES
1
ITEM: BOX BOUNDS pp pp pp
-40 40
-40 40
-40 40
ITEM: ENTRIES c_2[1] c_2[2] 
0.000484024 144.098 
ITEM: TIMESTEP
10100
ITEM: NUMBER OF ENTRIES
1
ITEM: BOX BOUNDS pp pp pp
-40 40
-40 40
-40 40
ITEM: ENTRIES c_2[1] c_2[2] 
6.71762e-07 144.184 
ITEM: TIMESTEP
10199
ITEM: NUMBER OF ENTRIES
1
ITEM: BOX BOUNDS pp pp pp
-40 40
-40 40
-40 40
ITEM: ENTRIES c_2[1] c_2[2] 
6.95586e-09 144.187 
ITEM: TIMESTEP
10200
ITEM: NUMBER OF ENTRIES
1
ITEM: BOX BOUNDS pp pp pp
-40 40
-40 40
-40 40
ITEM: ENTRIES c_2[1] c_2[2] 
6.95586e-09 144.187 
ITEM: TIMESTEP
10300
ITEM: NUMBER OF ENTRIES
1
ITEM: BOX BOUNDS pp pp pp
-40 40
-40 40
-40 40
ITEM: ENTRIES c_2[1] c_2[2] 
0.00047224 144.099 
ITEM: TIMESTEP
10400
ITEM: NUMBER OF ENTRIES
1
ITEM: BOX BOUNDS pp pp pp
-40 40
-40 40
-40 40
ITEM: ENTRIES c_2[1] c_2[2] 
0.000924159 144.064 
ITEM: TIMESTEP
10500
ITEM: NUMBER OF ENTRIES
1
ITEM: BOX BOUNDS pp pp pp
-40 40
-40 40
-40 40
ITEM: ENTRIES c_2[1] c_2[2] 
4.12958e-05 144.213 
ITEM: TIMESTEP
10600
ITEM: NUMBER OF ENTRIES
1
ITEM: BOX BOUNDS pp pp pp
-40 40
-40 40
-40 40
ITEM: ENTRIES c_2[1] c_2[2] 
4.34832e-05 144.214 
ITEM: TIMESTEP
10700
ITEM: NUMBER OF ENTRIES
1
ITEM: BOX BOUNDS pp pp pp
-40 40
-40 40
-40 40
ITEM: ENTRIES c_2[1] c_2[2] 
8.58671e-07 144.191 
ITEM: TIMESTEP
10800
ITEM: NUMBER OF ENTRIES
1
ITEM: BOX BOUNDS pp pp pp
-40 40
-40 40
-40 40
ITEM: ENTRIES c_2[1] c_2[2] 
6.21968e-06 144.197 
ITEM: TIMESTEP
10900
ITEM: NUMBER OF ENTRIES
1
ITEM: BOX BOUNDS pp pp pp
-40 40
-40 40
-40 40
ITEM: ENTRIES c_2[1] c_2[2] 
3.26855e-05 144.164 
ITEM: TIMESTEP
11000
ITEM: NUMBER OF ENTRIES
1
ITEM: BOX BOUNDS pp pp pp
-40 40
-40 40
-40 40
ITEM: ENTRIES c_2[1] c_2[2] 
1.76863e-09 144.187 
ITEM: TIMESTEP
11004
ITEM: NUMBER OF ENTRIES
1
ITEM: BOX BOUNDS pp pp pp
-40 40
-40 40
-40 40
ITEM: ENTRIES c_2[1] c_2[2] 
1.05964e-09 144.187 
ITEM: TIMESTEP
11100
ITEM: NUMBER OF ENTRIES
1
ITEM: BOX BOUNDS pp pp pp
-40 40
-40 40
-40 40
ITEM: ENTRIES c_2[1] c_2[2] 
1.45136e-05 144.171 
ITEM: TIMESTEP
11200
ITEM: NUMBER OF ENTRIES
1
ITEM: BOX BOUNDS pp pp pp
-40 40
-40 40
-40 40
ITEM: ENTRIES c_2[1] c_2[2] 
0.0011511 144.324 
ITEM: TIMESTEP
11300
ITEM: NUMBER OF ENTRIES
1
ITEM: BOX BOUNDS pp pp pp
-40 40
-40 40
-40 40
ITEM: ENTRIES c_2[1] c_2[2] 
0.000731881 144.296 
ITEM: TIMESTEP
11400
ITEM: NUMBER OF ENTRIES
1
ITEM: BOX BOUNDS pp pp pp
-40 40
-40 40
-40 40
ITEM: ENTRIES c_2[1] c_2[2] 
0.000128809 144.141 
ITEM: TIMESTEP
11500
ITEM: NUMBER OF ENTRIES
1
ITEM: BOX BOUNDS pp pp pp
-40 40
-40 40
-40 40
ITEM: ENTRIES c_2[1] c_2[2] 
6.91848e-07 144.19 
ITEM: TIMESTEP
11545
ITEM: NUMBER OF ENTRIES
1
ITEM: BOX BOUNDS pp pp pp
-40 40
-40 40
-40 40
ITEM: ENTRIES c_2[1] c_2[2] 
4.70477e-09 144.187 
ITEM: TIMESTEP
11600
ITEM: NUMBER OF ENTRIES
1
ITEM: BOX BOUNDS pp pp pp
-40 40
-40 40
-40 40
ITEM: ENTRIES c_2[1] c_2[2] 
1.68896e-07 144.185 
ITEM: TIMESTEP
11700
ITEM: NUMBER OF ENTRIES
1
ITEM: BOX BOUNDS pp pp pp
-40 40
-40 40
-40 40
ITEM: ENTRIES c_2[1] c_2[2] 
0.000352539 144.263 
ITEM: TIMESTEP
11800
ITEM: NUMBER OF ENTRIES
1
ITEM: BOX BOUNDS pp pp pp
-40 40
-40 40
-40 40
ITEM: ENTRIES c_2[1] c_2[2] 
0.000242494 144.25 
ITEM: TIMESTEP
11900
ITEM: NUMBER OF ENTRIES
1
ITEM: BOX BOUNDS pp pp pp
-40 40
-40 40
-40 40
ITEM: ENTRIES c_2[1] c_2[2] 
1.01725e-07 144.186 
ITEM: TIMESTEP
11938
ITEM: NUMBER OF ENTRIES
1
ITEM: BOX BOUNDS pp pp pp
-40 40
-40 40
-40 40
ITEM: ENTRIES c_2[1] c_2[2] 
1.18852e-10 144.187 
ITEM: TIMESTEP
12000
ITEM: NUMBER OF ENTRIES
1
ITEM: BOX BOUNDS pp pp pp
-40 40
-40 40
-40 40
ITEM: ENTRIES c_2[1] c_2[2] 
0.000246583 144.123 
ITEM: TIMESTEP
12100
ITEM: NUMBER OF ENTRIES
1
ITEM: BOX BOUNDS pp pp pp
-40 40
-40 40
-40 40
ITEM: ENTRIES c_2[1] c_2[2] 
4.24444e-06 144.195 
ITEM: TIMESTEP
12200
ITEM: NUMBER OF ENTRIES
1
ITEM: BOX BOUNDS pp pp pp
-40 40
-40 40
-40 40
ITEM: ENTRIES c_2[1] c_2[2] 
1.8683e-06 144.192 
ITEM: TIMESTEP
12264
ITEM: NUMBER OF ENTRIES
1
ITEM: BOX BOUNDS pp pp pp
-40 40
-40 40
-40 40
ITEM: ENTRIES c_2[1] c_2[2] 
2.21174e-08 144.186 
ITEM: TIMESTEP
12300
ITEM: NUMBER OF ENTRIES
1
ITEM: BOX BOUNDS pp pp pp
-40 40
-40 40
-40 40
ITEM: ENTRIES c_2[1] c_2[2] 
0.000338787 144.261 
ITEM: TIMESTEP
12400
ITEM: NUMBER OF ENTRIES
1
ITEM: BOX BOUNDS pp pp pp
-40 40
-40 40
-40 40
ITEM: ENTRIES c_2[1] c_2[2] 
2.24684e-05 144.168 
ITEM: TIMESTEP
12486
ITEM: NUMBER OF ENTRIES
1
ITEM: BOX BOUNDS pp pp pp
-40 40
-40 40
-40 40
ITEM: ENTRIES c_2[1] c_2[2] 
4.80346e-10 144.187 
ITEM: TIMESTEP
12500
ITEM: NUMBER OF ENTRIES
1
ITEM: BOX BOUNDS pp pp pp
-40 40
-40 40
-40 40
ITEM: ENTRIES c_2[1] c_2[2] 
0.00352513 144.427 
ITEM: TIMESTEP
12600
ITEM: NUMBER OF ENTRIES
1
ITEM: BOX BOUNDS pp pp pp
-40 40
-40 40
-40 40
ITEM: ENTRIES c_2[1] c_2[2] 
1.35192e-05 144.202 
ITEM: TIMESTEP
12693
ITEM: NUMBER OF ENTRIES
1
ITEM: BOX BOUNDS pp pp pp
-40 40
-40 40
-40 40
ITEM: ENTRIES c_2[1] c_2[2] 
2.27004e-11 144.187 
ITEM: TIMESTEP
12700
ITEM: NUMBER OF ENTRIES
1
ITEM: BOX BOUNDS pp pp pp
-40 40
-40 40
-40 40
ITEM: ENTRIES c_2[1] c_2[2] 
1.64345e-05 144.203 
ITEM: TIMESTEP
12800
ITEM: NUMBER OF ENTRIES
1
ITEM: BOX BOUNDS pp pp pp
-40 40
-40 40
-40 40
ITEM: ENTRIES c_2[1] c_2[2] 
1.84538e-08 144.186 
ITEM: TIMESTEP
12804
ITEM: NUMBER OF ENTRIES
1
ITEM: BOX BOUNDS pp pp pp
-40 40
-40 40
-40 40
ITEM: ENTRIES c_2[1] c_2[2] 
3.28938e-10 144.187 
ITEM: TIMESTEP
12889
ITEM: NUMBER OF ENTRIES
1
ITEM: BOX BOUNDS pp pp pp
-40 40
-40 40
-40 40
ITEM: ENTRIES c_2[1] c_2[2] 
2.22944e-09 144.187 
ITEM: TIMESTEP
12900
ITEM: NUMBER OF ENTRIES
1
ITEM: BOX BOUNDS pp pp pp
-40 40
-40 40
-40 40
ITEM: ENTRIES c_2[1] c_2[2] 
0.00195574 144.008 
ITEM: TIMESTEP
12999
ITEM: NUMBER OF ENTRIES
1
ITEM: BOX BOUNDS pp pp pp
-40 40
-40 40
-40 40
ITEM: ENTRIES c_2[1] c_2[2] 
7.28277e-10 144.187 
ITEM: TIMESTEP
13000
ITEM: NUMBER OF ENTRIES
1
ITEM: BOX BOUNDS pp pp pp
-40 40
-40 40
-40 40
ITEM: ENTRIES c_2[1] c_2[2] 
7.28277e-10 144.187 
ITEM: TIMESTEP
13100
ITEM: NUMBER OF ENTRIES
1
ITEM: BOX BOUNDS pp pp pp
-40 40
-40 40
-40 40
ITEM: ENTRIES c_2[1] c_2[2] 
6.04845e-08 144.186 
ITEM: TIMESTEP
13156
ITEM: NUMBER OF ENTRIES
1
ITEM: BOX BOUNDS pp pp pp
-40 40
-40 40
-40 40
ITEM: ENTRIES c_2[1] c_2[2] 
1.20422e-11 144.187 
ITEM: TIMESTEP
13200
ITEM: NUMBER OF ENTRIES
1
ITEM: BOX BOUNDS pp pp pp
-40 40
-40 40
-40 40
ITEM: ENTRIES c_2[1] c_2[2] 
6.89425e-07 144.19 
ITEM: TIMESTEP
13300
ITEM: NUMBER OF ENTRIES
1
ITEM: BOX BOUNDS pp pp pp
-40 40
-40 40
-40 40
ITEM: ENTRIES c_2[1] c_2[2] 
6.18789e-07 144.19 
ITEM: TIMESTEP
13382
ITEM: NUMBER OF ENTRIES
1
ITEM: BOX BOUNDS pp pp pp
-40 40
-40 40
-40 40
ITEM: ENTRIES c_2[1] c_2[2] 
2.26123e-11 144.187 
ITEM: TIMESTEP
13400
ITEM: NUMBER OF ENTRIES
1
ITEM: BOX BOUNDS pp pp pp
-40 40
-40 40
-40 40
ITEM: ENTRIES c_2[1] c_2[2] 
0.00220396 144.377 
ITEM: TIMESTEP
13500
ITEM: NUMBER OF ENTRIES
1
ITEM: BOX BOUNDS pp pp pp
-40 40
-40 40
-40 40
ITEM: ENTRIES c_2[1] c_2[2] 
2.20027e-06 144.193 
ITEM: TIMESTEP
13584
ITEM: NUMBER OF ENTRIES
1
ITEM: BOX BOUNDS pp pp pp
-40 40
-40 40
-40 40
ITEM: ENTRIES c_2[1] c_2[2] 
4.37631e-11 144.187 
ITEM: TIMESTEP
13600
ITEM: NUMBER OF ENTRIES
1
ITEM: BOX BOUNDS pp pp pp
-40 40
-40 40
-40 40
ITEM: ENTRIES c_2[1] c_2[2] 
0.0083077 144.556 
ITEM: TIMESTEP
13700
ITEM: NUMBER OF ENTRIES
1
ITEM: BOX BOUNDS pp pp pp
-40 40
-40 40
-40 40
ITEM: ENTRIES c_2[1] c_2[2] 
8.18554e-06 144.198 
ITEM: TIMESTEP
13800
ITEM: NUMBER OF ENTRIES
1
ITEM: BOX BOUNDS pp pp pp
-40 40
-40 40
-40 40
ITEM: ENTRIES c_2[1] c_2[2] 
3.53869e-11 144.187 
ITEM: TIMESTEP
13801
ITEM: NUMBER OF ENTRIES
1
ITEM: BOX BOUNDS pp pp pp
-40 40
-40 40
-40 40
ITEM: ENTRIES c_2[1] c_2[2] 
3.53869e-11 144.187 
ITEM: TIMESTEP
13900
ITEM: NUMBER OF ENTRIES
1
ITEM: BOX BOUNDS pp pp pp
-40 40
-40 40
-40 40
ITEM: ENTRIES c_2[1] c_2[2] 
3.86387e-06 144.195 
ITEM: TIMESTEP
13972
ITEM: NUMBER OF ENTRIES
1
ITEM: BOX BOUNDS pp pp pp
-40 40
-40 40
-40 40
ITEM: ENTRIES c_2[1] c_2[2] 
1.37262e-12 144.187 
ITEM: TIMESTEP
14000
ITEM: NUMBER OF ENTRIES
1
ITEM: BOX BOUNDS pp pp pp
-40 40
-40 40
-40 40
ITEM: ENTRIES c_2[1] c_2[2] 
1.81633e-06 144.181 
ITEM: TIMESTEP
14100
ITEM: NUMBER OF ENTRIES
1
ITEM: BOX BOUNDS pp pp pp
-40 40
-40 40
-40 40
ITEM: ENTRIES c_2[1] c_2[2] 
0.000229505 144.248 
ITEM: TIMESTEP
14200
ITEM: NUMBER OF ENTRIES
1
ITEM: BOX BOUNDS pp pp pp
-40 40
-40 40
-40 40
ITEM: ENTRIES c_2[1] c_2[2] 
0.000166596 144.239 
ITEM: TIMESTEP
14286
ITEM: NUMBER OF ENTRIES
1
ITEM: BOX BOUNDS pp pp pp
-40 40
-40 40
-40 40
ITEM: ENTRIES c_2[1] c_2[2] 
5.37351e-09 144.187 
ITEM: TIMESTEP
14300
ITEM: NUMBER OF ENTRIES
1
ITEM: BOX BOUNDS pp pp pp
-40 40
-40 40
-40 40
ITEM: ENTRIES c_2[1] c_2[2] 
5.31314e-06 144.178 
ITEM: TIMESTEP
14400
ITEM: NUMBER OF ENTRIES
1
ITEM: BOX BOUNDS pp pp pp
-40 40
-40 40
-40 40
ITEM: ENTRIES c_2[1] c_2[2] 
0.000131811 144.233 
ITEM: TIMESTEP
14500
ITEM: NUMBER OF ENTRIES
1
ITEM: BOX BOUNDS pp pp pp
-40 40
-40 40
-40 40
ITEM: ENTRIES c_2[1] c_2[2] 
2.03167e-06 144.193 
ITEM: TIMESTEP
14600
ITEM: NUMBER OF ENTRIES
1
ITEM: BOX BOUNDS pp pp pp
-40 40
-40 40
-40 40
ITEM: ENTRIES c_2[1] c_2[2] 
1.34156e-05 144.202 
ITEM: TIMESTEP
14700
ITEM: NUMBER OF ENTRIES
1
ITEM: BOX BOUNDS pp pp pp
-40 40
-40 40
-40 40
ITEM: ENTRIES c_2[1] c_2[2] 
5.48006e-05 144.217 
ITEM: TIMESTEP
14800
ITEM: NUMBER OF ENTRIES
1
ITEM: BOX BOUNDS pp pp pp
-40 40
-40 40
-40 40
ITEM: ENTRIES c_2[1] c_2[2] 
1.89029e-06 144.181 
ITEM: TIMESTEP
14900
ITEM: NUMBER OF ENTRIES
1
ITEM: BOX BOUNDS pp pp pp
-40 40
-40 40
-40 40
ITEM: ENTRIES c_2[1] c_2[2] 
1.90499e-07 144.185 
ITEM: TIMESTEP
14983
ITEM: NUMBER OF ENTRIES
1
ITEM: BOX BOUNDS pp pp pp
-40 40
-40 40
-40 40
ITEM: ENTRIES c_2[1] c_2[2] 
1.07092e-10 144.187 
ITEM: TIMESTEP
15000
ITEM: NUMBER OF ENTRIES
1
ITEM: BOX BOUNDS pp pp pp
-40 40
-40 40
-40 40