LAMMPS (16 Mar 2018)
Created orthogonal box = (-40 -40 -40) to (40 40 40)
  1 by 1 by 1 MPI processor grid
Read molecule cat_ion:
  3 atoms with max type 4
  2 bonds with max type 2
  1 angles with max type 1
  0 dihedrals with max type 0
  0 impropers with max type 0
Created 40 atoms
  Time spent = 0.0042789 secs
Created 120 atoms
  Time spent = 0.00018096 secs
40 atoms in group anion
40 atoms in group ring
40 atoms in group methyl
40 atoms in group ethyl
  40 settings made for charge
PPPM initialization ...
  using 12-bit tables for long-range coulomb (/home/conda/feedstock_root/build_artifacts/lammps_1526417570236/work/src/kspace.cpp:321)
  G vector (1/distance) = 0.0715088
  grid = 8 8 8
  stencil order = 5
  estimated absolute RMS force accuracy = 0.000442562
  estimated relative force accuracy = 3.07342e-05
  using double precision FFTs
  3d grid and FFT values/proc = 2197 512
Neighbor list info ...
  update every 1 steps, delay 0 steps, check yes
  max neighbors/atom: 2000, page size: 100000
  master list distance cutoff = 32
  ghost atom cutoff = 32
  binsize = 16, bins = 5 5 5
  1 neighbor lists, perpetual/occasional/extra = 1 0 0
  (1) pair nm/cut/coul/long, perpetual
      attributes: half, newton on
      pair build: half/bin/newton
      stencil: half/bin/3d/newton
      bin: standard
PPPM initialization ...
  using 12-bit tables for long-range coulomb (/home/conda/feedstock_root/build_artifacts/lammps_1526417570236/work/src/kspace.cpp:321)
  G vector (1/distance) = 0.0715088
  grid = 8 8 8
  stencil order = 5
  estimated absolute RMS force accuracy = 0.000442562
  estimated relative force accuracy = 3.07342e-05
  using double precision FFTs
  3d grid and FFT values/proc = 2197 512
  PPPM/cg optimization cutoff: 1e-05
  Total charged atoms: 100.0%
  Min/max charged atoms/proc: 100.0% 100.0%
Per MPI rank memory allocation (min/avg/max) = 10.13 | 10.13 | 10.13 Mbytes
Step Temp PotEng KinEng E_bond Press Density 
       0          298 2.5721675e+11    6.1246042    0.2462049 3.219596e+12  0.025660516 
     743          298   -376.70777    6.1246042   0.71146344   -60.711557  0.025660516 
Loop time of 1.30274 on 1 procs for 743 steps with 160 atoms

99.9% CPU use with 1 MPI tasks x no OpenMP threads

Minimization stats:
  Stopping criterion = energy tolerance
  Energy initial, next-to-last, final = 
          257216752976     -376.678179323     -376.707773317
  Force two-norm initial, final = 4.53631e+12 1.94855
  Force max component initial, final = 2.0033e+12 0.75324
  Final line search alpha, max atom move = 0.073406 0.0552923
  Iterations, force evaluations = 743 1234

MPI task timing breakdown:
Section |  min time  |  avg time  |  max time  |%varavg| %total
---------------------------------------------------------------
Pair    | 0.514      | 0.514      | 0.514      |   0.0 | 39.46
Bond    | 0.010936   | 0.010936   | 0.010936   |   0.0 |  0.84
Kspace  | 0.72912    | 0.72912    | 0.72912    |   0.0 | 55.97
Neigh   | 0.01434    | 0.01434    | 0.01434    |   0.0 |  1.10
Comm    | 0.019531   | 0.019531   | 0.019531   |   0.0 |  1.50
Output  | 0          | 0          | 0          |   0.0 |  0.00
Modify  | 0          | 0          | 0          |   0.0 |  0.00
Other   |            | 0.01482    |            |       |  1.14

Nlocal:    160 ave 160 max 160 min
Histogram: 1 0 0 0 0 0 0 0 0 0
Nghost:    726 ave 726 max 726 min
Histogram: 1 0 0 0 0 0 0 0 0 0
Neighs:    3424 ave 3424 max 3424 min
Histogram: 1 0 0 0 0 0 0 0 0 0

Total # of neighbors = 3424
Ave neighs/atom = 21.4
Ave special neighs/atom = 1.5
Neighbor list builds = 47
Dangerous builds = 0
PPPM initialization ...
  using 12-bit tables for long-range coulomb (/home/conda/feedstock_root/build_artifacts/lammps_1526417570236/work/src/kspace.cpp:321)
  G vector (1/distance) = 0.0715088
  grid = 8 8 8
  stencil order = 5
  estimated absolute RMS force accuracy = 0.000442562
  estimated relative force accuracy = 3.07342e-05
  using double precision FFTs
  3d grid and FFT values/proc = 2197 512
Per MPI rank memory allocation (min/avg/max) = 9.004 | 9.004 | 9.004 Mbytes
Step Temp PotEng KinEng E_bond Press Density 
       0          298   -376.70777    6.1246042   0.71146344   -60.711557  0.025660516 
    2000    313.78285   -392.53329     6.448979   0.86302569   -65.707142  0.034277513 
    4000    298.17064   -433.20442    6.1281113   0.75088644    246.12603   0.05636038 
    6000    305.77016   -518.16793    6.2842994   0.88366943   -159.17434   0.09270813 
    8000    309.14153   -617.12769    6.3535889    1.1601208   -737.67706   0.14691582 
   10000    320.22901   -781.25124    6.5814628    1.3092603    83.160451   0.23633658 
   12000    327.28305   -1041.4807      6.72644    1.2111596   -189.94224   0.38006476 
   14000     325.3644   -1320.6951    6.6870072    1.1421783   -303.70524   0.54080469 
   16000    322.84764   -1564.1147     6.635282   0.99359368    5492.1833   0.68183281 
   18000    319.73034   -1764.2843    6.5712141    1.1192918    4841.4088    0.7884821 
   20000    316.98321   -1949.9588    6.5147541    1.5952449   -4598.6816    0.8969713 
   22000    308.51487   -2087.3965    6.3407096    1.6018589     2384.998   0.97641037 
   24000    305.18695   -2167.8083    6.2723129    1.5150086    -4222.984    1.0057151 
   26000    346.29588   -2215.5234    7.1171986    1.3274213     3066.436    1.0244016 
   28000    258.45967   -2253.9158    5.3119571    1.5092522    6966.2753    1.0397932 
   30000    313.93856   -2276.6695    6.4521793    1.5299439   -1084.5526    1.0567301 
   32000    306.40302    -2310.148    6.2973061    1.5449228    918.30678     1.074961 
   34000    294.39039   -2329.1853    6.0504181    1.8487986   -6280.6602    1.0787392 
   36000    301.20827   -2339.5592    6.1905418    1.6239189    10617.478    1.0879398 
   38000    289.13272   -2349.6702    5.9423606    1.7920359   -588.79429    1.0882199 
   40000    306.47287   -2360.7823    6.2987416    1.8686286     3630.251     1.092495 
   42000    273.25442   -2375.3592     5.616024    1.8142801    1380.7033    1.0947755 
   44000    305.32171   -2384.1187    6.2750826    1.7496434    3782.5083    1.0973312 
   46000    294.83708   -2396.1329    6.0595987     1.941381   -2461.0453    1.0988244 
   48000    354.39276   -2399.6085    7.2836087      1.84904   -2201.6253    1.0997733 
   50000    284.55562   -2402.7874    5.8482905    1.9529009    2133.3831    1.0996909 
   52000    296.26868   -2402.3654    6.0890215    1.7604388     6233.571     1.100125 
   54000    281.73552   -2404.8846    5.7903307    1.9700859    1765.7114    1.0994102 
   56000    283.20271   -2406.8474     5.820485    2.1122402   -6364.6947    1.0969866 
   58000    328.14817    -2406.969    6.7442204    2.0169439    5688.3599      1.09876 
   60000    293.59059   -2406.3955    6.0339804    1.9517125    4633.2901    1.0997334 
   62000     280.7579   -2407.9452    5.7702382    2.0411357    9665.7855    1.0998188 
   64000    270.63093   -2407.1473    5.5621052    2.1500041   -3815.3976    1.0960404 
   66000    307.17571   -2406.9656    6.3131867    2.0762881    919.03915    1.0997918 
   68000    324.95824   -2407.4092    6.6786598    2.0415069   -9826.1456     1.096581 
   70000    286.49109   -2408.4468     5.888069    2.0102664   -446.54528    1.0988122 
   72000    292.67516   -2407.2619    6.0151661    2.1827377   -1611.7741    1.0977023 
   74000    303.29435   -2408.0883    6.2334156    2.0453186   -1136.3962      1.09893 
   76000    308.67788   -2407.2583    6.3440598    1.9984867   -2450.0462    1.0975383 
   78000    291.28874   -2407.5224     5.986672    2.1195897   -3089.2513    1.0972635 
   80000    276.03409   -2407.7608    5.6731529     2.137765   -554.29438    1.0974429 
   82000    289.59742   -2406.9951    5.9519114    2.0396197    2233.4995    1.0986829 
   84000    306.71788   -2407.2791    6.3037773    1.7599501    2321.6762    1.1002873 
   86000    288.96938   -2406.5231    5.9390036     2.078219   -7513.7403    1.0959604 
   88000    278.21194    -2407.294    5.7179128    2.0473572    4352.1679    1.0991226 
   90000    295.11955   -2406.9654    6.0654041    2.0553418    4365.6446    1.0990568 
   92000    281.54578     -2406.13     5.786431    2.4095319   -10799.032    1.0952125 
   94000    316.78984    -2407.626    6.5107798    1.9857501   -2653.8869    1.0975095 
   96000    295.36313   -2407.4523    6.0704102    1.8594938    1743.4177    1.0997811 
   98000    321.70037   -2407.5967    6.6117028    2.2210178   -7738.7587    1.0974621 
  100000    326.04741   -2407.6262    6.7010447    1.9606526    1123.4394    1.0976949 
  102000    320.34389   -2406.4478     6.583824    2.1814334   -4894.2598    1.0959446 
  104000    293.53137   -2407.9009    6.0327633    2.2054908   -4173.9628    1.0974432 
  106000     292.8526   -2407.8582     6.018813     1.948608    4605.3554    1.1006068 
  108000    319.72454   -2407.0091    6.5710948    1.9923545    1545.7186    1.0965767 
  110000    292.28905   -2407.1417    6.0072307    2.0959041   -4571.2247    1.0991834 
  112000     297.8994   -2406.1956    6.1225365    2.2990423    -1442.827    1.0971772 
  114000    298.00293   -2406.9729    6.1246645    1.9843007   -1655.9919    1.0983209 
  116000     301.1876   -2407.0856    6.1901169    2.0044552    224.55681    1.0970202 
  118000    283.50119   -2407.2713    5.8266193      2.12489    3925.9105    1.1006783 
  120000    348.56341   -2407.5234    7.1638018     2.113678    -5760.305    1.0968267 
  122000    265.82606   -2407.2434    5.4633537    2.1217401   -7288.5755    1.0947616 
  124000    310.16962   -2407.1645    6.3747186    2.0948342     7824.922    1.0993858 
  126000     299.3322   -2406.8933    6.1519841    2.0740946    5901.5912    1.1009284 
  128000    291.31595   -2406.6522    5.9872312    2.1708517   -4831.4226    1.0954513 
  130000    305.71727   -2407.3162    6.2832123    2.3090652   -7858.6252    1.0962339 
  132000    329.15485   -2407.2513      6.76491    2.1474902    7304.7719      1.10097 
  134000    242.90074   -2407.0273    4.9921841    1.9725217   -54.808216    1.0986848 
  136000    277.43263   -2406.0626    5.7018961    2.1961533   -7356.6401    1.0964603 
  138000    316.30608   -2407.1768    6.5008374     2.099279   -1693.5407     1.098097 
  140000     258.8258   -2407.0942    5.3194817    2.2555431   -6916.2156    1.0968591 
  142000    293.09018   -2405.8724    6.0236959    2.2366264   -8384.7039    1.0965614 
  144000     267.1028   -2407.5598    5.4895938    2.1488625    517.99502    1.1012719 
  146000    306.51899   -2407.9213    6.2996896    2.1256414    6544.2974    1.1007484 
  148000    283.25562    -2407.351    5.8215723    2.0310289     6651.991    1.0992511 
  150000    279.75235   -2407.3947    5.7495718      1.91086    4186.7952    1.1006973 
  152000    262.12193    -2407.756     5.387225    2.2761192   -8520.4412    1.0969475 
  154000    284.91533   -2407.6068    5.8556832    2.0534207    7771.6993    1.0994307 
  156000    284.06371   -2406.7488    5.8381804    2.1500998    285.43419    1.1002326 
  158000    290.56765   -2406.9656    5.9718518     2.506521   -4086.8977      1.09856 
  160000    299.45117    -2407.228    6.1544291    2.2517005    1312.9803    1.0978196 
  162000    283.99919   -2407.1543    5.8368545    1.9388058   -801.29157    1.0973777 
  164000    306.52114    -2407.226    6.2997338    2.0922601   -463.95292    1.0997599 
  166000     327.2406   -2407.6107    6.7255677    2.1341497    1408.7839    1.0995985 
  168000    292.37573   -2407.6842    6.0090122    2.1557822    9318.2604    1.1001327 
  170000     305.3553   -2407.1167     6.275773    2.4727629   -9486.9797     1.096787 
  172000    295.83153   -2408.3304    6.0800371    2.0115982    5377.7408    1.0996177 
  174000    283.74314   -2408.1403     5.831592     2.066999   -918.15842    1.0979531 
  176000    300.01986   -2407.7594     6.166117    1.9109129     3048.539    1.1001853 
  178000    286.76832   -2407.2295    5.8937666    2.3181744   -2938.9156    1.0999784 
  180000    281.91162    -2408.265      5.79395    2.2323059   -395.55382    1.0977601 
  182000    272.57656   -2407.2222    5.6020925    2.0826871    13116.491    1.1024451 
  184000    323.18688   -2407.4167    6.6422541     2.671915   -10699.372    1.0958771 
  186000    322.05749   -2408.1815    6.6190424      2.20367   -5753.6659    1.0971546 
  188000    302.06419    -2407.711    6.2081329    2.0579582    9258.5324    1.1014332 
  190000    263.70301    -2407.345    5.4197201    2.4037964   -2855.3337    1.0976455 
  192000    303.25352   -2407.3928    6.2325764    2.5234273   -1523.7625    1.0982642 
  194000    288.28568   -2406.5189    5.9249519    2.2126042    9563.3161     1.098616 
  196000    282.91047   -2407.3449    5.8144788    2.1640531   -7618.3049    1.0967333 
  198000    313.54545   -2407.2888    6.4440999    2.0119391   -1640.9103    1.0983523 
  200000    320.70251   -2407.4482    6.5911944    2.2390977    1771.1024    1.0993591 
  202000    292.36698   -2408.2254    6.0088323    2.1506822    982.29538    1.0983822 
  204000     308.4379    -2407.476    6.3391277    2.3726282   -8374.7032    1.0974896 
  206000    319.87474   -2407.1806    6.5741819      2.26803    1653.8234    1.0987295 
  208000    276.74597   -2407.8641    5.6877837    2.1279178    9050.9906     1.099952 
  210000    310.08067   -2407.0655    6.3728904    2.1764588    1163.0574    1.0979661 
  212000    296.21253   -2407.5555    6.0878674    2.4196301   -3104.7117    1.0991821 
  214000    267.79486   -2408.3729    5.5038172    1.9044901    11263.235    1.1009803 
  216000    308.04545    -2407.241    6.3310619    2.2601054   -441.85102    1.0981813 
  218000    306.81003   -2407.5976    6.3056711    2.6016767    -3206.567    1.0971946 
  220000     297.5521   -2407.8122    6.1153987    2.4709573    6963.7841    1.1024881 
  222000    300.05704    -2406.578    6.1668813    2.1316823    3115.2774    1.0967933 
  224000    288.12525    -2408.116    5.9216547    2.0987289   -6493.3283     1.097868 
  226000    291.60989   -2407.9773    5.9932723    2.3701018    1554.4601    1.1000645 
  228000    291.16139   -2406.8512    5.9840547    2.5166053    5.7840082    1.0989838 
  230000    267.58237   -2408.3751      5.49945    2.5036374    3029.4595    1.0992148 
  232000    290.19416   -2408.4206    5.9641757    2.4156679   -2523.7805    1.0999747 
  234000    306.09347   -2407.6498    6.2909441    2.0649426   -3377.6469     1.099189 
  236000    317.38127   -2407.6608    6.5229351    2.1267574    4018.9232    1.0977888 
  238000    317.62678   -2408.4091     6.527981    2.3231535   -9070.4876    1.0969515 
  240000    304.47717   -2407.6597    6.2577254    2.2905527     7735.045     1.102224 
  242000    286.77871    -2408.132    5.8939802    2.4349571   -2320.5006    1.0969492 
  244000    294.52695   -2407.3408    6.0532247    2.3158632   -5582.9638    1.0938219 
  246000    285.82966   -2407.9031    5.8744749    2.2342447   -215.89838    1.1013773 
  248000    294.44309   -2407.7373    6.0515013    2.2409391    6584.5778    1.1021021 
  250000    299.26366   -2407.6793    6.1505755     2.228356   -8425.2103    1.0943563 
  252000     296.0222    -2406.959    6.0839556    2.1075499    -3151.362    1.0960709 
  254000    282.56508   -2408.2645    5.8073802    2.3957718    2401.1256    1.1007402 
  256000    298.19685   -2407.8058    6.1286499    2.3736735    1792.3618     1.099613 
  258000     277.6691   -2407.1375    5.7067562    2.3157566   -7322.3404    1.0955652 
  260000    325.90673   -2407.7092    6.6981533    2.2517116   -1592.8855    1.0978312 
  262000    299.04053   -2408.2927    6.1459896    2.4088774    297.43441    1.1001958 
  264000    322.32034   -2407.6326    6.6244447    2.0557706   -8299.0703    1.0961012 
  266000    305.26422   -2407.5237    6.2739011    2.5114058   -8931.2579    1.0949317 
  268000    274.87261   -2407.8305    5.6492818     2.532292    9270.0094    1.1029329 
  270000    316.14528    -2407.609    6.4975326    2.5367752   -1997.1052    1.0974008 
  272000    293.98836   -2407.8865    6.0421555    2.5079176   -1328.2923    1.0972992 
  274000    290.18541   -2407.6711    5.9639958    2.3741582    6217.5586    1.1014635 
  276000    305.54984   -2407.4598    6.2797713    2.5825861   -3646.1722    1.0984855 
  278000     299.0247   -2408.1944    6.1456641    2.3407518   -1233.9012    1.0958425 
  280000    297.08568   -2408.1763    6.1058128    2.2686413     4572.749    1.0994475 
  282000    333.93783   -2407.8545    6.8632116    2.1846132    4924.7926    1.1020076 
  284000      287.096   -2408.0489    5.9005013    2.4362554   -10681.121    1.0970471 
  286000    294.96181   -2406.5529    6.0621623    2.6119466   -10063.639    1.0950229 
  288000    290.86349   -2407.1354     5.977932    2.4980143    5033.2995    1.1005497 
  290000    287.45628   -2407.6581    5.9079059    2.6701014   -7116.4347    1.0986479 
  292000    293.85921    -2408.702    6.0395011    2.3015411    8415.1733    1.0999998 
  294000    327.16281   -2407.4565    6.7239689    2.6780214   -7743.1905     1.096841 
  296000    303.83894   -2407.7053    6.2446082    2.6354534    5271.9902    1.1025623 
  298000    302.35119    -2407.685    6.2140314    2.5405267   -4156.6175    1.0979487 
  300000    255.87294   -2407.3089    5.2587936    2.1338009    16362.905    1.1017273 
  302000    322.15747   -2407.7629    6.6210973    2.4287138   -122.23826    1.0995371 
  304000     307.8246   -2407.5312    6.3265229    2.3854379    8566.0478    1.1012837 
  306000    306.50544   -2407.5062    6.2994111     2.538069    -1096.526    1.0986195 
  308000    315.78268   -2407.9669    6.4900802    2.6586217   -144.91865    1.0992725 
  310000    306.88323   -2407.8081    6.3071755    2.6452373    5611.7637    1.1034735 
  312000    284.93363   -2408.0018    5.8560594    2.4164411     -1514.79    1.0982956 
  314000    291.31956   -2407.6013    5.9873054    2.2674866   -6554.4585    1.0953612 
  316000    316.54733   -2407.8535    6.5057957    1.9239205    10390.166    1.1023859 
  318000    304.48227   -2407.5283    6.2578301    2.5755358    938.04623    1.1017989 
  320000    303.52513   -2407.4349    6.2381586    3.3396279   -4751.0742     1.095484 
  322000     302.8743   -2407.3761    6.2247825    2.7417803    11609.062    1.1017902 
  324000    304.09545   -2407.3945    6.2498801    2.6596985   -1885.2474    1.0988323 
  326000    294.47383   -2407.8637     6.052133    1.9338311    8279.9157      1.10073 
  328000    291.07568   -2407.1053     5.982293     2.173883   -5018.8325    1.0968021 
  330000    315.22137   -2406.5115     6.478544    2.5969524   -170.36783    1.0982434 
  332000    301.61202   -2407.2802    6.1988397     2.718688   -746.36739    1.0998417 
  334000    256.46941   -2407.6032    5.2710525    2.5090518   -3781.4387    1.0970702 
  336000    281.63966   -2408.3129    5.7883606    2.3319488    4083.5504    1.0981825 
  338000    286.90205    -2407.957    5.8965151    2.1412722    4485.1648    1.1009944 
  340000    291.86338   -2407.8569    5.9984821    2.2898393   -1796.9247    1.0987435 
  342000    305.37265   -2408.1655    6.2761296    2.5640107    6343.9872     1.100871 
  344000    264.73215   -2406.6727    5.4408713    3.2690908   -4166.7289    1.0975639 
  346000    285.11028   -2407.5882      5.85969    2.8714769    2139.1633    1.0990851 
  348000    323.15261   -2407.7653    6.6415497    2.2468269   -1937.9176    1.0978537 
  350000    304.01637   -2407.3022    6.2482548    2.4709725   -3255.3823    1.0989165 
  352000    321.47199   -2408.2451    6.6070091    2.5306299    7020.0294    1.1008603 
  354000    277.23263   -2407.3253    5.6977856     2.673041   -4204.9822    1.0978773 
  356000    324.07212   -2407.5035    6.6604479    2.3563303    3249.0878    1.0997709 
  358000    305.29747   -2407.7533    6.2745843    2.6234194   -3135.2934    1.0982709 
  360000    303.44719   -2406.8512    6.2365569    2.7074849   -5353.4307    1.0968222 
  362000     311.0481   -2407.5338    6.3927735    2.5147331    4303.1982    1.0983587 
  364000    295.97347   -2407.4201    6.0829542    2.5402131   -4112.7662    1.0984587 
  366000    296.36791   -2407.4433    6.0910609    2.3694394    2979.0978    1.0999038 
  368000    299.08209   -2408.0946    6.1468438    2.4852639   -6525.0748    1.0962308 
  370000    306.28599   -2407.4437    6.2949008    2.5596007    -5553.082    1.0969927 
  372000     284.4382   -2408.2031    5.8458772    2.6298396   -4011.3524    1.0999556 
  374000    277.52679   -2407.3143    5.7038313    2.2729015   -553.36495    1.0976654 
  376000    305.78815   -2407.8198     6.284669    2.3914074    1171.6429    1.0975304 
  378000    302.15043    -2408.388    6.2099054    2.7619931   -7084.3976    1.0986492 
  380000    294.80215   -2408.3363    6.0588807    2.5480513    153.73767    1.0997531 
  382000    300.66393   -2408.6581    6.1793543    2.2482521   -3395.4244    1.0975178 
  384000    274.74316   -2407.5538    5.6466213     2.466203   -13949.745    1.0949938 
  386000    278.22925   -2408.3378    5.7182685    2.4010534    8752.7895    1.1013768 
  388000    336.87365   -2407.8271    6.9235495    2.6912576   -10586.787    1.0957197 
  390000    305.10391    -2407.835    6.2706063    2.7008786   -554.31382    1.0977684 
  392000    310.18372   -2407.7588    6.3750085    2.9240019   -7511.5025    1.0965329 
  394000    301.41637   -2408.3085    6.1948187     2.798055    1497.3402    1.1003085 
  396000    312.47824   -2407.9915    6.4221663    2.2537359   -2792.2278    1.0981131 
  398000    313.18838   -2407.3131    6.4367613    2.1284441   -1940.8296    1.0989961 
  400000    320.21055   -2407.6245    6.5810834     2.103835    6475.7184    1.1020264 
  402000    290.75957   -2408.1411    5.9757962     2.686454   -6048.0831      1.09813 
  404000    300.35369   -2407.8891    6.1729781    2.7074808    4291.5722    1.0988635 
  406000    269.67905   -2408.0132    5.5425417     2.461345   -907.12842    1.0995984 
  408000    302.08549   -2407.8887    6.2085707    2.3561605    7274.4571    1.1010168 
  410000    334.01398   -2407.5405    6.8647767    2.5774726   -2613.4403     1.096967 
  412000    308.61502   -2408.0854    6.3427679    2.3319505   -2216.3501    1.0981975 
  414000    255.89205   -2407.7515    5.2591863    2.5244227    7284.0202    1.1007784 
  416000    314.61611   -2407.5301    6.4661046     2.957473   -724.37735    1.0980069 
  418000    276.03725   -2407.5543    5.6732178    2.6406424    10608.273    1.1010088 
  420000      315.685   -2407.5444    6.4880728    2.6870236   -2387.4907    1.0993533 
  422000    349.28998   -2407.5487    7.1787344    2.6194484    7614.4237    1.1013347 
  424000     307.1589   -2407.5677    6.3128413     2.875367   -6754.6711    1.0956598 
  426000    257.94338   -2408.1294     5.301346     2.568439    9571.3888    1.1021512 
  428000    281.73867    -2407.893    5.7903954    2.6935552    4520.7838    1.1011128 
  430000    266.62238   -2408.4325    5.4797199    2.5941794   -4095.9888    1.0973965 
  432000    309.13079    -2407.862    6.3533682    2.8158211   -7042.8549    1.0970765 
  434000    328.20816   -2407.7191    6.7454533    2.6797822   -3339.9329    1.0990546 
  436000     292.5327   -2408.1396    6.0122384    2.5185867    5817.3221     1.098926 
  438000    307.26842   -2408.0089    6.3150922    2.5295288    5559.6204    1.0994628 
  440000    281.09825   -2408.3249    5.7772333    2.6025985   -967.81789    1.0979269 
  442000    339.58869   -2408.1564      6.97935    2.4431201   -1082.1887    1.0998096 
  444000    295.73988   -2408.4565    6.0781533    2.7384453    2502.2185    1.0985764 
  446000    292.10107   -2407.1639    6.0033672    2.7838747    238.36476    1.0988994 
  448000    277.50817   -2407.4776    5.7034486    2.4915841   -229.42053    1.0997457 
  450000    277.63084   -2407.5959    5.7059699    2.2198385    3418.1084    1.1002956 
  452000    353.92347   -2408.2695    7.2739636    2.3965044    4026.7513    1.0999172 
  454000    288.88124   -2407.5435    5.9371921    2.8573545   -7620.5058    1.0972944 
  456000    262.24871   -2406.9595    5.3898308     2.968053    2077.8742    1.0996088 
  458000    291.39407   -2407.4266    5.9888367    2.7817756    4761.1143    1.0984372 
  460000    289.82753    -2408.167    5.9566406    2.5773239   -4223.0749    1.0984931 
  462000    303.31053   -2407.5171    6.2337482    2.5683605   -8221.7679    1.0967899 
  464000    281.27045   -2407.3259    5.7807724    2.5236026    5566.3006    1.0991585 
  466000    306.60989   -2407.0581    6.3015578    2.6714397   -4701.7332    1.0979562 
  468000     266.1191   -2407.9103    5.4693765      2.73937    10197.355    1.1018605 
  470000    309.22097   -2408.4537    6.3552216    2.7583093      1333.41    1.0999668 
  472000    288.33303   -2407.4837    5.9259251     2.436111    1862.6155    1.0976318 
  474000    307.25402    -2406.932    6.3147962    2.2723768    136.32992    1.0987357 
  476000    302.47192   -2408.5235    6.2165126    2.3576191    409.68301    1.0998425 
  478000    284.08465   -2407.2446    5.8386109    3.0796957   -3080.0639    1.0964638 
  480000    294.16256   -2407.7428    6.0457356    2.8490469     10159.95     1.101464 
  482000    282.71158   -2407.7862    5.8103911    3.0043227   -6094.7359    1.0980195 
  484000    328.48969    -2407.525    6.7512393    2.1671419    11901.735    1.1023747 
  486000    315.59962    -2407.499    6.4863179    2.3408074    -129.2179    1.0976908 
  488000    278.10529   -2407.0785    5.7157208    2.4029976     138.5994    1.0997467 
  490000    266.95482   -2407.7988    5.4865524    2.7492038    2738.0555    1.1008162 
  492000    291.32061   -2407.4271    5.9873269    2.6511483    8850.7777    1.1012986 
  494000    313.58496   -2407.4768     6.444912    2.7449557    363.89001    1.0989558 
  496000     306.3931   -2408.2082    6.2971022    2.7607958   -1962.9267    1.0982012 
  498000    304.36021   -2407.4535    6.2553215    2.5081921   -3695.6031    1.0974649 
  500000    312.50671   -2407.3043    6.4227514     2.630645    1463.1477    1.0977721 
  502000    274.81386   -2407.6646    5.6480742    3.0638596   -3148.4178    1.0985934 
  504000    292.98218    -2407.801    6.0214762    2.8044888    5246.6859    1.1014228 
  506000    311.75619    -2407.885    6.4073264    2.4346457    698.79486    1.0987744 
  508000    297.57656   -2407.3641    6.1159015    2.5282291   -3864.6865    1.0976014 
  510000    289.89816   -2408.0028    5.9580922    2.2813095    4520.5693    1.0997442 
  512000    292.47563   -2408.3325    6.0110654    2.4088826   -10000.247    1.0970271 
  514000    275.54197   -2407.8094    5.6630385    2.6351005    11168.667    1.1005685 
  516000     298.6305   -2407.3566    6.1375625    3.0218948   -3494.0403     1.099991 
  518000    329.78178   -2408.2371    6.7777949    2.7429637    5547.5996    1.0999807 
  520000    271.46984   -2407.9218    5.5793466     2.055483   -1946.0878    1.0974771 
  522000     306.8658   -2407.6532    6.3068174    2.1340468   -4395.7811    1.0971129 
  524000    315.38346   -2408.4727    6.4818754    2.9960367    1055.7828     1.099484 
  526000     298.5172   -2408.1954    6.1352338    3.3559992    5655.6377     1.099382 
  528000    273.17546   -2408.0998    5.6144013    2.8229209    2064.2605    1.0994412 
  530000    292.28142   -2407.6941    6.0070738    2.7795726     2827.464    1.1021995 
  532000    269.69452   -2408.1163    5.5428597    2.7168605   -317.07347    1.0981322 
  534000    287.68991   -2407.6565    5.9127075    2.9235486    2835.2712    1.0985738 
  536000    301.22095   -2406.8128    6.1908023    3.7138507   -6435.2369    1.0968805 
  538000    298.68459   -2408.4914    6.1386741    3.3298156   -1906.7983    1.1005028 
  540000     286.9461   -2407.3463    5.8974204    2.5540149   -3416.7489    1.0959116 
  542000    323.63206   -2407.6067    6.6514036    1.8980092    2085.1521    1.0993208 
  544000    289.88933   -2407.3781    5.9579107    2.7075886   -7793.2241    1.0969703 
  546000    308.42786   -2408.4417    6.3389214    3.0089108    4209.5535    1.1002727 
  548000    277.67495   -2406.7087    5.7068763    3.4430248   -7543.5367    1.0951366 
  550000    277.96982   -2407.4542    5.7129366    2.9616686    6776.0195    1.1023612 
  552000    252.38178    -2407.725    5.1870419    2.4298259    7425.9977    1.1024254 
  554000    295.55748   -2406.8061    6.0744046    2.3668363   -3273.3939    1.0959453 
  556000    286.38001   -2408.2998     5.885786    2.7906085    8070.9639    1.1008219 
  558000    313.37547   -2408.0813    6.4406064    3.3465938    8965.8261     1.102305 
  560000    301.77897   -2407.2442    6.2022709    3.0305253   -144.23666     1.097161 
  562000    286.26728   -2407.8742    5.8834691    2.1704482   -553.94093    1.0976255 
  564000    286.80083    -2408.301    5.8944348    2.0762763   -12214.012    1.0964248 
  566000    262.03197   -2407.8715    5.3853763    2.3390815    4617.0823    1.1000091 
  568000    336.81798   -2408.1528    6.9224054    3.5145109    4911.5546    1.0991427 
  570000     319.9221   -2406.8611    6.5751551     3.950553   -9792.5883    1.0961737 
  572000    296.07939   -2408.1202    6.0851311    2.6733948    9566.4865    1.1030607 
  574000    265.60335   -2407.1042    5.4587765    3.0058296   -685.06469    1.0972688 
  576000    307.86935   -2407.9084    6.3274426    2.8426728    7346.6488    1.0996917 
  578000    271.54166   -2407.7958    5.5808228    3.4013465   -7205.9932    1.0987159 
  580000    286.20246   -2407.9831    5.8821369    2.9191234   -2502.8485    1.0996751 
  582000    310.72618   -2407.2762    6.3861572     1.801028    6694.9012    1.0996274 
  584000    321.49423   -2406.4181    6.6074661    2.0960197   -7453.1724    1.0957072 
  586000    287.29504   -2408.3362    5.9045919     2.568039    5782.8033    1.1011492 
  588000    311.24432    -2407.389    6.3968062     3.425764   -9671.9254    1.0957433 
  590000    327.11208   -2408.1471    6.7229262    2.7166928    1495.3877    1.0983657 
  592000    321.60861   -2408.1372    6.6098168     2.223471    1006.8004    1.1006877 
  594000    325.31539   -2407.0861    6.6859999    2.5424113   -3801.1518    1.0973876 
  596000    297.37089   -2408.1395    6.1116746    2.9313025    5247.0042    1.1001047 
  598000    315.54702   -2407.4931    6.4852369    3.4320767     -4304.78    1.0992235 
  600000    328.86931   -2407.6868    6.7590414    3.0599989    1458.6633    1.0997885 
  602000    304.46013   -2407.8364    6.2573751    2.8051473    2688.3476    1.0989204 
  604000    322.59669   -2407.6042    6.6301242    2.2979851    11249.468    1.1026342 
  606000    279.13606   -2407.2765    5.7369057    2.7062303   -8803.9235    1.0960131 
  608000    298.83756   -2408.0458     6.141818    2.7800442    1616.9386    1.0989991 
  610000    310.71353   -2408.0201    6.3858973    3.4551538   -2259.0363    1.0974374 
  612000    322.79514   -2407.1598     6.634203    3.0896821    1757.5807     1.099203 
  614000    313.16674   -2408.0154    6.4363165    2.2930098    4144.1182    1.1003089 
  616000    293.10902   -2407.8453    6.0240831    2.5817321   -14749.381    1.0942349 
  618000    332.79487     -2407.69     6.839721    3.0969062    2698.8467    1.0993288 
  620000    330.04698   -2407.5781    6.7832454    3.6484706   -12253.032    1.0967064 
  622000    294.25882   -2408.3202    6.0477141     3.084608     -1264.87     1.098913 
  624000    313.30713   -2408.0526    6.4392019    2.3981052    2656.4599    1.1000854 
  626000    321.53365   -2407.2654    6.6082763    2.5850234   -6547.0191    1.0977446 
  628000    290.19965   -2407.9619    5.9642885    2.4873874    3884.2592    1.1008129 
  630000    309.87765   -2408.3787     6.368718    2.6015633    2167.0471    1.0991769 
  632000     322.0959     -2407.72     6.619832    2.7308404   -2909.8686    1.0987152 
  634000    306.84998   -2406.9831    6.3064922    2.8877372   -5366.9364    1.0968411 
  636000    355.10397   -2407.7311    7.2982258    2.6838925    6125.0894    1.0997716 
  638000    323.32315   -2407.3476    6.6450548    2.3452051    5123.5204    1.0988043 
  640000    279.80048   -2408.1766    5.7505611    2.4494348   -3578.4125    1.0968477 
  642000    287.52407   -2408.5316     5.909299     2.951603    1864.3476    1.0997824 
  644000    298.50723   -2407.7762    6.1350289      3.03231    6685.1613    1.1004663 
  646000    306.18844    -2407.841     6.292896    2.6850809   -3564.1573    1.0977945 
  648000    303.62779   -2407.2835    6.2402685    2.0565396    1784.4514    1.0988548 
  650000    287.44254   -2407.7808    5.9076234    2.3073036   -7798.9773     1.098067 
  652000    310.55388   -2407.2619    6.3826162    2.5885268    5854.3364    1.0996561 
  654000    303.76066   -2407.8552    6.2429993    3.0951079    389.67552    1.0983421 
  656000    265.70857    -2407.233     5.460939    2.8901809    243.62752    1.0987531 
  658000    295.04571   -2408.2803    6.0638865    2.1820033   -1789.6916     1.097678 
  660000    298.61757   -2408.1788    6.1372968    2.0326334    435.34199    1.0986324 
  662000    290.19863   -2408.2251    5.9642675     3.012472   -2269.3756    1.0974483 
  664000    320.07237   -2407.2223    6.5782436    3.7999264   -15432.474    1.0957341 
  666000    332.67525   -2406.9021    6.8372625    2.9105172    85.919134    1.0978702 
  668000    298.24771    -2406.475    6.1296952    2.9644016   -15204.074    1.0946611 
  670000    289.30528   -2408.2718    5.9459071    2.3931217    5776.7629    1.1011115 
  672000    294.47235   -2407.3242    6.0521026    2.7635351   -3559.4032    1.0986927 
  674000    289.51288    -2408.154    5.9501738    3.0151382   -570.32122    1.0990551 
  676000    300.20632   -2407.6245    6.1699492     3.186508    389.01777    1.0992864 
  678000    309.40155   -2407.5094    6.3589331      2.99542   -7715.6913    1.0966015 
  680000    311.22599   -2407.7535    6.3964296    2.5527145    3404.8451    1.0989317 
  682000    311.82784   -2407.0819     6.408799    2.4476122   -2607.2943    1.0987162 
  684000    314.07906   -2407.5847    6.4550669    3.0302876   -535.94498    1.0979926 
  686000    268.73019   -2407.9326    5.5230405    2.9343217    336.38345    1.0987832 
  688000    318.68303   -2407.6564    6.5496892    2.9537823   -1891.8206    1.0983249 
  690000    312.69186   -2408.1236    6.4265565    2.5048747   -1669.1513    1.0989335 
  692000    277.27563   -2407.4734    5.6986695    2.3236291    2713.8484    1.0978729 
  694000    324.63381   -2408.5921    6.6719919    2.3084411    1000.8148     1.099807 
  696000    326.69276   -2407.9146    6.7143081    2.6670133    8042.1746    1.1020631 
  698000    275.14596   -2407.9308    5.6548996    2.8618416   -1199.1723    1.0984016 
  700000    295.44887   -2407.6475    6.0721724    2.6294715   -3594.1232    1.0974495 
  702000     292.4074   -2407.4117     6.009663    2.1971128    4136.7046    1.1012984 
  704000    284.86927   -2407.4911    5.8547367    2.8530697   -1269.1102    1.0983748 
  706000    301.01761   -2407.6665    6.1866231    2.9086627   -2157.1953    1.0982795 
  708000    300.90517   -2407.5898    6.1843123    2.9391967    1665.0619    1.0992562 
  710000    302.12359   -2407.6076    6.2093538    2.8813802     38.17214    1.0993628 
  712000    299.05043   -2408.1017     6.146193    2.8957024    -4828.738    1.0979688 
  714000    287.67345   -2408.0578    5.9123692    2.3100318    -1199.805    1.0990024 
  716000    318.39336   -2407.1751    6.5437359    2.5180588   -3201.5093    1.0980555 
  718000     284.8688   -2408.2182    5.8547269     2.673546    9868.5286    1.1011262 
  720000    337.65908   -2407.5482     6.939692    3.0986072   -6799.5464    1.0976388 
  722000    299.21967   -2407.7762    6.1496714    3.1869563    2944.3098    1.0984731 
  724000    327.56477   -2406.8192    6.7322302    3.2555634   -7577.7015    1.0967665 
  726000    303.33271   -2408.1839    6.2342041    2.6286572    1958.8818    1.0988028 
  728000    297.69329   -2408.1855    6.1183005    2.7202393   -1635.8567    1.0986326 
  730000    275.74891   -2408.1059    5.6672918    2.6522204   -8153.3471    1.0966746 
  732000    332.29151   -2406.6721    6.8293757    2.6478089    3270.2016    1.0989359 
  734000    295.29299   -2407.5521    6.0689688    2.9626768   -1739.8709    1.0977231 
  736000    287.18406   -2407.9231    5.9023111     2.728519    4816.3864     1.101171 
  738000    286.13346   -2407.4734    5.8807188    2.6674467   -2973.2335    1.0982947 
  740000      297.042   -2408.0297     6.104915    2.5154023    1723.9741    1.0973666 
  742000    318.65067   -2407.7702    6.5490243    2.6764802   -69.048969    1.1002805 
  744000    297.22232   -2407.0852     6.108621    2.7970792    8249.4614    1.0998446 
  746000    325.44551   -2407.3127    6.6886744    2.8730172   -1551.5105    1.0990172 
  748000    312.76139   -2407.2135    6.4279857    3.3596317   -6249.0819    1.0955581 
  750000    328.56613    -2407.808    6.7528103    3.1612105   -6784.1161    1.0988676 
  752000    315.97467   -2407.9087     6.494026    2.8097341    3733.3362    1.0984353 
  754000     289.7624   -2408.0699    5.9553021    2.3923413   -4513.2356    1.0976097 
  756000    292.76853   -2407.1855    6.0170851    2.4129523    2632.3823    1.1001541 
  758000    295.58688   -2407.8919    6.0750089    2.8110615   -6378.0496    1.0976261 
  760000    300.40518   -2407.5867    6.1740363    2.9486407    7266.0928    1.1000937 
  762000    330.93364   -2407.9647    6.8014684    2.7790603   -3350.0565    1.0972335 
  764000    284.84544   -2407.2899    5.8542469    2.5620745   -2370.2673    1.0988849 
  766000    320.31821   -2407.9629    6.5832962    2.2750874    617.81831    1.0987085 
  768000    292.94919   -2407.2425     6.020798    2.6143648    7189.7449    1.1009098 
  770000     287.9591   -2407.6235    5.9182401      2.92799   -1822.1476    1.1007013 
  772000    294.76542   -2407.7748    6.0581258    3.2581606   -2570.8259    1.0976164 
  774000    309.47461   -2408.0896    6.3604346    2.9668646     3030.188    1.0982484 
  776000    296.21859   -2407.9806    6.0879921    2.7895837   -467.99745    1.0984389 
  778000    278.17532     -2407.59    5.7171602    2.3538683    8328.0511    1.1025503 
  780000    295.17616   -2407.5128    6.0665675    2.7077772    1416.8974    1.0967103 
  782000    272.35371   -2407.9378    5.5975124    3.1930063   -7881.5201    1.0961099 
  784000    289.11561   -2407.7061     5.942009    2.9011616    8445.8867    1.1026545 
  786000     317.8361   -2407.8325    6.5322828    2.5366544   -2819.6211    1.0978357 
  788000     330.3919   -2406.3273    6.7903342    2.4537401   -10487.125    1.0933636 
  790000    323.80077   -2407.6774     6.654871    2.3138595    3864.7054    1.1005513 
  792000    266.93053    -2408.306    5.4860532     3.259127   -1440.4049    1.0999887 
  794000    292.33576   -2407.3972    6.0081907    3.2806807    1644.1909    1.0992705 
  796000    302.21982   -2408.1944    6.2113314    3.1366476    -2347.557    1.0973464 
  798000    329.10989   -2408.3011    6.7639859    2.8831951    2683.2868    1.1024306 
  800000    315.74151   -2408.0133    6.4892341    2.4262521    4202.1541    1.1004441 
Loop time of 11789.9 on 1 procs for 800000 steps with 160 atoms

Performance: 0.586 ns/day, 40.937 hours/ns, 67.855 timesteps/s
100.0% CPU use with 1 MPI tasks x no OpenMP threads

MPI task timing breakdown:
Section |  min time  |  avg time  |  max time  |%varavg| %total
---------------------------------------------------------------
Pair    | 11042      | 11042      | 11042      |   0.0 | 93.66
Bond    | 8.7635     | 8.7635     | 8.7635     |   0.0 |  0.07
Kspace  | 475.68     | 475.68     | 475.68     |   0.0 |  4.03
Neigh   | 2.5645     | 2.5645     | 2.5645     |   0.0 |  0.02
Comm    | 109.6      | 109.6      | 109.6      |   0.0 |  0.93
Output  | 0.11497    | 0.11497    | 0.11497    |   0.0 |  0.00
Modify  | 143.83     | 143.83     | 143.83     |   0.0 |  1.22
Other   |            | 6.999      |            |       |  0.06

Nlocal:    160 ave 160 max 160 min
Histogram: 1 0 0 0 0 0 0 0 0 0
Nghost:    8526 ave 8526 max 8526 min
Histogram: 1 0 0 0 0 0 0 0 0 0
Neighs:    146779 ave 146779 max 146779 min
Histogram: 1 0 0 0 0 0 0 0 0 0

Total # of neighbors = 146779
Ave neighs/atom = 917.369
Ave special neighs/atom = 1.5
Neighbor list builds = 395
Dangerous builds = 0
PPPM initialization ...
  using 12-bit tables for long-range coulomb (/home/conda/feedstock_root/build_artifacts/lammps_1526417570236/work/src/kspace.cpp:321)
  G vector (1/distance) = 0.0881978
  grid = 4 4 4
  stencil order = 5
  estimated absolute RMS force accuracy = 0.000257881
  estimated relative force accuracy = 1.79089e-05
  using double precision FFTs
  3d grid and FFT values/proc = 729 64
Per MPI rank memory allocation (min/avg/max) = 9.694 | 9.694 | 9.694 Mbytes
Step Temp PotEng Press v_pxy v_pxz v_pyz v_v11 v_v22 v_v33 
       0    315.74151   -2408.0237    4197.6647    -7599.116    10117.933    3656.4201 0.00041892233 0.00074266162 9.6988344e-05 
    2000    307.78375   -2407.6737    7220.3942   -3225.3992    10072.851    9870.0111   0.10709109   0.51319275    0.2796428 
    4000    337.65251   -2408.0487     3398.482   -4928.8588    10942.995    7341.8749    0.1338045   0.56530803   0.29525406 
    6000    289.69144   -2408.1061    749.59844   -639.30166    7175.6425    2733.3669   0.13652887   0.57646182   0.29366408 
    8000    313.69244   -2407.6859   -3128.2808   -488.72759    7962.0538    6559.1728   0.12521567   0.57767919   0.26945082 
   10000     303.4988   -2408.4775    2092.6749   -3012.7818    8401.3846    7273.8932   0.12068829   0.58190801    0.2454983 
   12000    299.17308    -2407.648    2671.9337   -1546.6669    8282.2666    8388.6689   0.12417256   0.60981138   0.26132373 
   14000    337.21389   -2407.8337     949.8809    351.22829    4576.7744    7704.2059   0.12777022   0.59493614   0.26691715 
   16000    292.86219    -2407.567    1611.1651   -5342.9826    9365.9863    5020.1983   0.11694343   0.59787845   0.26211461 
   18000    288.21314    -2408.278    2734.8071   -1494.4124     15624.36    11563.086   0.11606078   0.58438717   0.25269319 
   20000    319.36984   -2407.5202    46.402573   -9428.3967    8302.3507    8049.4219   0.11943227    0.5867502   0.25556196 
   22000    250.54937   -2407.6752    4762.0554   -4670.6113    6943.1225      6978.11   0.11777319   0.58325118   0.26102772 
   24000    288.14627   -2407.6729    4707.6613   -3435.6509     9958.759    4030.6275   0.11432152   0.57970458   0.25754831 
   26000    305.00221   -2406.9329    1702.7631   -5318.9548    10136.248    6533.8481   0.11409304   0.58352046    0.2559717 
   28000    275.67208   -2407.4815    5068.6071   -1331.4526    12842.047    8559.8794   0.11626909   0.58268075   0.25669417 
   30000    306.48991     -2408.19    1988.2693    1982.1953    10922.141    4900.9968   0.12090291   0.58690589   0.25803433 
   32000    282.38241   -2407.3569    304.78054   -4824.6357    10964.083     7819.586   0.11838982   0.58215653   0.25799817 
   34000    294.56175   -2407.4833    2543.0901   -2021.6561    8074.0829    7486.3573   0.11633833    0.5827114   0.26056403 
   36000    288.80523   -2408.1446     187.6331   -3654.6066    10980.322    11365.353   0.11575979   0.57494025   0.26167749 
   38000    288.87439    -2408.008    3370.8456   -3842.3724    8704.9261     7930.172   0.11510803   0.58110584   0.26352479 
   40000    286.31569   -2408.1244   -2385.1762   -8684.2065    5578.8054    5227.5079   0.11370364   0.58027231   0.26249456 
   42000    289.30096   -2408.2104   -213.09458   -5219.0052    12699.787    11044.749   0.11191893   0.57777762   0.26063409 
   44000    292.03478   -2406.8381    623.80363   -8752.5857    9677.4653    7089.7212   0.11289799   0.58256966   0.26372656 
   46000    340.63607   -2408.2434   -279.16467   -7207.9916    10609.211     12508.97   0.11103331   0.58100207   0.25974066 
   48000    303.75038   -2407.0583   -10.260181   -12611.363    8914.5194    10452.268   0.11169553   0.58367263   0.26355248 
   50000    299.10953   -2407.8897    851.19433   -5820.3321    6825.6852    11995.802   0.11282975   0.58241274   0.26156859 
   52000    285.92906   -2408.3815    2018.3206   -5927.3418    7075.8042    4846.1742   0.11043096   0.58197527   0.26226934 
   54000    295.81837   -2407.7041    662.23184   -6751.4645    3690.8088    6655.2453   0.10961624   0.57991914   0.26014942 
   56000     299.5686   -2408.7813    4623.1643   -2993.7251    6232.0289    8699.9769   0.11036015   0.57914692   0.26381878 
   58000    308.03568   -2407.7934     3366.892   -1921.1957    10391.047    8157.5886   0.11079632   0.58069713   0.26378217 
   60000     315.8088   -2407.4685    3754.1134    -4966.901    9698.0093    851.15796   0.10849513   0.58126222   0.26377167 
   62000    300.42557   -2407.8613    3022.1603   -8770.9794    10916.396    7942.0618   0.10781352   0.58126445   0.26344507 
   64000    283.91414   -2407.7767    3704.9577   -6549.3179    8761.7372    9173.8408   0.10929038   0.58316888   0.26437966 
   66000    268.55745   -2407.7385    158.82701   -2895.9334     8103.113    10703.831   0.10913537    0.5842749   0.26525577 
   68000    279.08745   -2408.0888   -1056.3392    -2442.449    6227.7045    9076.5956   0.10904654   0.58237067   0.26401246 
   70000    300.53676   -2409.0312    1178.3605   -2763.0491    8481.4504    6817.0667   0.10685567   0.57994076   0.26387324 
   72000    321.69921   -2407.4102    4272.6259   -4426.9532    9155.6455    10286.699   0.10619962   0.57630836   0.26393156 
   74000    313.20586   -2407.8812    5540.4455    -4688.026    9305.0807    5085.7778   0.10593608   0.57966314   0.26574077 
   76000    325.75849   -2407.4972    8337.0864   -1306.1257    10566.998    3480.9443   0.10695885   0.57809738   0.26424812 
   78000    263.74151   -2407.6769    6104.2604   -4787.9355    8297.9378    10778.837   0.10632992   0.58014266   0.26393543 
   80000    280.31385     -2407.03    4021.2441   -5385.2176    10127.535    10848.892   0.10719897   0.58092183   0.26375312 
   82000    285.60628   -2407.8641    5224.1194   -6615.7768    10085.633    4732.6262   0.10680708   0.58179908   0.26391555 
   84000    304.28878   -2407.6786    8338.9748   -3593.6879    14428.989     6842.111   0.10701204   0.58300284   0.26340754 
   86000      278.676   -2407.9949    9131.2644   -6189.3774     11244.18    10572.828   0.10670301   0.58379914    0.2638969 
   88000    318.53427   -2407.5798     6893.418   -3457.6016    8583.6943    6651.1417   0.10645464   0.58645288   0.26373442 
   90000    281.02516   -2407.2323    4066.6911   -6808.4661    8521.1294    7785.5424    0.1052372   0.58502999   0.26219254 
   92000    301.33525    -2408.246    3130.4747   -6923.6026    7092.3234    815.62582   0.10705447   0.58752498   0.26242111 
   94000    296.12311   -2407.7355    1336.1718   -2099.3193    7983.1732    6672.6899   0.10656341   0.58629849   0.26127842 
   96000    296.68027   -2407.6233    2560.5241   -232.01297    6332.7774    4626.7722   0.10688449   0.58674518   0.26238078 
   98000    292.58954   -2406.9299    812.53204   -382.21371    15199.578    3809.2569   0.10663904   0.58507063   0.26091878 
  100000    356.11663   -2408.3928    5106.3195   -2011.8107    12625.994    3487.8368   0.10682906    0.5862554   0.26006416 
  102000    287.28902   -2407.7979    5848.0121   -6965.1445    11021.291    5194.8684   0.10665127   0.58673453   0.25933024 
  104000    299.18764   -2407.4834     6855.283    -7918.174    13784.571    3462.2294   0.10727696   0.58864597   0.25972689 
  106000    290.26838   -2407.9815    3705.6044   -4399.8774    9853.3176    3720.8881   0.10840778    0.5892304   0.25908529 
  108000    295.72499   -2407.6104    4126.5246   -6599.4194    11258.048    7697.5131   0.10749429   0.58934465   0.25765282 
  110000    291.05937   -2407.2688    4796.9507   -8016.3325    15454.312    8803.3035   0.10773171   0.58934957    0.2571399 
  112000    277.80617   -2408.6424    7176.7543   -6197.7289    11341.916    5386.6047   0.10855175   0.59105396   0.25803541 
  114000    291.99428   -2407.9683    2137.8185   -3599.9409    9894.8103    6613.3495   0.10954339    0.5911252   0.25783622 
  116000    304.10986   -2407.3402    1447.3291   -3764.9721    10079.756    8606.7068   0.10975744   0.59079342   0.25639988 
  118000    260.53681   -2407.5216    3036.3881   -4458.6329    11045.951    13227.829   0.10925637   0.59076536   0.25663087 
  120000    304.21255   -2407.8516   -696.12082   -5069.8997    8314.8259    12975.268    0.1102599   0.59225694   0.25594359 
  122000    306.93856   -2407.4112    2817.1645   -5255.0825    9654.7097    10254.706   0.11081313   0.59250909   0.25630223 
  124000    285.01156   -2408.4878    2977.6018   -3819.5377    10404.638    13138.835   0.11127062   0.59166497   0.25541026 
  126000    284.08457   -2408.0575    2137.7046   -3757.9242    11946.229    10497.126   0.11081288   0.59259039   0.25558888 
  128000    304.33213   -2407.7332   -2182.4335   -6313.3756    10232.221    8223.6525   0.11009607   0.59175548   0.25549056 
  130000     278.4247   -2408.3854    438.22601    1110.8866    9819.6243    7481.8069   0.11084674   0.59281853    0.2555902 
  132000    318.45316   -2407.1401    869.53132   -5167.1702    8893.3116    4856.9057   0.11097309   0.59260336   0.25646743 
  134000    322.35897   -2407.6468    3875.3718   -3902.9017    14993.505    9142.9497   0.11040516   0.59089341    0.2558884 
  136000    328.82133   -2408.1377      6402.76   -3930.3992    12672.291    10443.829   0.10984429   0.59147135   0.25674341 
  138000    270.24639   -2408.3027    3828.4231   -5851.8387    12225.759    6367.9089   0.10901282   0.58948251   0.25649632 
  140000    295.00137   -2408.6214    1852.6805   -6973.6204    10167.287    10867.458   0.10901931   0.59006133   0.25698873 
  142000    315.82567   -2408.1101    2561.9977   -11182.302    6311.7703      7331.54   0.10833301    0.5880502   0.25697879 
  144000    275.21146   -2407.4147    3118.1752   -5005.8439    11486.606    11466.751   0.10853313   0.58921464   0.25802441 
  146000    306.50269   -2408.0382    3487.6951   -3912.3736    5410.6746    8254.9192   0.10807215   0.59029504   0.25859998 
  148000    327.85848   -2407.9967    3534.3873   -765.61981    7526.0873    12053.113    0.1079313   0.58884636   0.25835717 
  150000    304.33052   -2408.3016    6681.0876   -4893.7838    7963.5921    5920.4041   0.10792817   0.58923582   0.25920163 
  152000    317.23187   -2408.3269    9094.0946   -1595.4986    9460.1855     7459.254   0.10779856   0.58833958   0.25979729 
  154000    290.78405   -2408.5405    8180.2825   -7385.4402    12641.175     7486.663   0.10706745   0.58837731    0.2603204 
  156000     289.3086   -2407.6562    6516.5248    1863.4109    7570.3857    10582.457   0.10695466   0.58791439   0.26042178 
  158000    320.23806   -2407.4293    6999.7322   -3568.6821    11357.998    12748.746   0.10652999    0.5861965   0.26053378 
  160000    302.65051   -2407.4075    4833.6369   -2677.5597    8051.5789    6501.3399   0.10672443   0.58656411   0.26127341 
  162000    282.35708    -2407.674    3666.6059   -5770.0259    8980.2157    7495.1413   0.10586239   0.58580361   0.26172598 
  164000    282.34622   -2407.8489    3832.8393    -2814.544     8297.235    4449.7128   0.10578338   0.58532014   0.26150502 
  166000    328.22588   -2408.1619    3379.5876   -2117.6738    9269.6161     12874.94   0.10534021   0.58422289   0.26166922 
  168000    289.57228   -2407.9143    2522.4279   -101.84386    12830.727    9932.7656   0.10499075   0.58451732   0.26249894 
  170000    315.23754   -2407.6969    1435.7644   -661.14214    12612.664     8292.088   0.10497166   0.58352241   0.26281274 
  172000    333.68685   -2408.4201    709.22754    1844.3098    9441.4263    3340.7532   0.10461833   0.58299027   0.26300698 
  174000    308.80593   -2408.1128    -1924.548   -4961.9362    7881.6854    7479.5596   0.10452848   0.58209154   0.26280299 
  176000    332.82086    -2408.235   -1293.2602   -2138.5076    10083.101    5217.0079   0.10442187   0.58179216   0.26342687 
  178000     326.4197   -2408.3457    551.56793   -2008.5262    9501.0985    5296.1544   0.10482921   0.58056829    0.2635028 
  180000    266.97013   -2407.9372    3602.0521   -6951.1427    9497.1887    3463.2923    0.1039544    0.5793723   0.26362506 
  182000    268.94184   -2407.5539    739.60714   -6123.4521    9719.6447    3955.5274   0.10397702   0.57896087   0.26403189 
  184000    308.87452   -2408.6464    2861.6998   -3553.6579    10505.889    8076.2332   0.10444593   0.57924047   0.26369409 
  186000    312.67908   -2407.7674    3969.5372   -5571.5738    12398.064    9483.1447   0.10428123   0.57921828   0.26390134 
  188000    252.18686    -2407.776    1254.5535   -6447.7149    11156.789    5522.4731   0.10472616    0.5796134   0.26476647 
  190000    275.42821   -2407.8093    1272.4233   -2441.2969    5722.7078    406.98886   0.10477324   0.57893899   0.26483713 
  192000    280.54112   -2408.3475    192.88568   -8368.8092    9136.2681    3214.3964   0.10417457   0.57871527   0.26470876 
  194000    273.42206   -2408.2027     3235.458   -7909.4641    9059.1778    4664.6862    0.1049042   0.57828541   0.26463662 
  196000    311.67746   -2407.3602     4122.581   -5788.1945     7913.609    7999.8624   0.10472001   0.57806475   0.26590453 
  198000    350.12391     -2408.65      4177.59   -1839.3939    9804.8934     9968.177   0.10453442    0.5778483   0.26601647 
  200000    275.41199   -2408.0635    2359.9905   -6680.2274    7796.9745    8271.2474   0.10459872   0.57871754   0.26590953 
  202000    282.86748   -2407.8886    6188.3917   -3760.4203    10290.346    12476.267   0.10461737   0.57863685   0.26521596 
  204000    294.23063   -2407.8011    9244.3696   -5160.9717    7134.9301    11017.201   0.10496047   0.58008867   0.26682556 
  206000    286.75653   -2407.5531     6220.929    -117.0995    10884.958    8032.3324   0.10452444   0.57912956   0.26642057 
  208000    324.82609   -2408.8255    3811.1313   -460.44474    8079.0163    6667.5839   0.10424455   0.57933724   0.26623822 
  210000    315.20546   -2407.8425     4167.929   -2507.7089    12024.163    11343.324    0.1038819   0.57816288    0.2662778 
  212000    265.14412   -2407.6919    4397.4131   -7146.9417    7120.4197    8057.2047   0.10432174   0.57827797   0.26731731 
  214000    274.82221   -2407.5599    4793.8895   -5670.5449    11959.571    8384.9121   0.10382212   0.57704423   0.26764565 
  216000    328.56931   -2408.4322    8504.7431   -970.37669    10027.627    7249.9406   0.10348457   0.57694365   0.26783845 
  218000    268.04886     -2407.65    6305.7737   -9410.8563    7763.3678    6325.2499   0.10317051     0.576393   0.26795275 
  220000    315.19059   -2408.3212    3174.9575   -5303.4693    6812.8311    8813.1245   0.10335566   0.57654232   0.26790191 
  222000    256.29443   -2407.9284    1025.5244   -8446.8651    5692.0306     9132.829   0.10332458   0.57710608    0.2680085 
  224000    301.20697   -2407.4343    2353.1874   -4645.3398    7630.7748    5139.0934   0.10329192   0.57650353   0.26760441 
  226000    296.83344   -2407.9552    158.81016    126.97296    3428.9767    7549.9011   0.10320305   0.57691173   0.26759511 
  228000    296.54134     -2407.87    748.42583   -8486.1834    5978.6545    5028.0256   0.10304258   0.57579592   0.26768294 
  230000    287.47858   -2408.3268    1762.9035   -4678.1041    5271.7016    4824.9088   0.10285385   0.57624251   0.26773984 
  232000    309.10154   -2407.9607     4992.088    -6602.965    9854.2775    5825.1871   0.10280191   0.57540417   0.26772642 
  234000    307.81654   -2407.6523    4969.2572   -5251.9499    7747.3664    4735.5621   0.10280187   0.57591885   0.26798451 
  236000    278.42329   -2407.9079    2345.6967   -9409.9628    9689.9655    6275.0787   0.10274404   0.57537428   0.26773884 
  238000    291.18554   -2407.7489    2627.0671   -1944.2719    8906.6066    4758.0489   0.10332236    0.5759758    0.2679159 
  240000    321.64606   -2407.8572    2081.5047   -5769.0276    8272.4266    5239.3219   0.10296183   0.57557499   0.26769248 
  242000    287.76757   -2408.1872    2523.4069   -7452.6023    6963.2707    7450.0353   0.10267939   0.57552599   0.26814491 
  244000    317.36089   -2407.6267   -463.12913   -6937.5363     5168.791    5218.3188   0.10286464    0.5752963   0.26812156 
  246000    263.43208   -2408.5169   -1093.3837    -5850.415    11811.305     7924.856   0.10277582   0.57550802   0.26842109 
  248000     289.4286   -2407.8371   -1943.6113   -7702.4743    10669.687     14165.03   0.10281315    0.5757892   0.26811116 
  250000    299.86672   -2408.3125   -2187.8276   -6003.9448    9203.3626    5432.9784    0.1029547   0.57578909   0.26817736 
  252000    297.54311   -2407.9555    960.41567    -6694.438    7553.2119    7347.5857   0.10277685   0.57617458   0.26778495 
  254000    293.89978   -2408.0637    827.96515    -3658.812    8493.7846    10017.463    0.1033321   0.57641185   0.26816394 
  256000    318.54882     -2407.93    126.19275   -749.45849    5693.5131    7361.0877   0.10341332   0.57773001   0.26847987 
  258000     331.4605   -2406.9041   -886.57172    -5906.648    7921.6048    6391.8241   0.10316214   0.57726405   0.26840691 
  260000    286.20557   -2408.0349    2708.1282   -4620.0492    8797.8278    4660.8594   0.10318939   0.57719327   0.26796726 
  262000    304.00545   -2407.1345    3277.8241   -10655.769    10627.029     8518.319    0.1032444   0.57776402   0.26815681 
  264000    247.01704   -2407.7588    3425.1481   -4632.6468    10914.808    5292.2899   0.10336055   0.57843928   0.26791055 
  266000    300.91937   -2408.1787    1163.3555   -8252.0431    10436.342    8349.5936   0.10341947   0.57858429   0.26768969 
  268000    341.83892   -2408.0056    2524.8274    -9891.451    11800.226    7512.7401   0.10341609   0.57870506   0.26738289 
  270000    280.17983   -2407.6418    4252.4782   -3886.0129    11252.317    7912.6147    0.1035882   0.57977403   0.26785585 
  272000     318.5848    -2408.628    2978.7627   -4919.7182    8435.9658    5458.6181   0.10351479   0.57987195    0.2676534 
  274000    299.15785   -2407.1862    2781.4153   -3022.2287    9469.3191    4615.8489   0.10349662   0.57971558   0.26739671 
  276000    269.68148   -2407.5922    1893.3634   -6084.7507    8972.5762     3682.292   0.10346125   0.57981632   0.26750559 
  278000    316.69144   -2407.7376    439.03444   -8326.9431    3929.9741    9432.8365   0.10363221   0.57974252   0.26709615 
  280000    286.71593   -2408.3027   -1741.0756   -4579.0141    8857.0734    9940.5025    0.1037508   0.57960215   0.26723966 
  282000    325.06097   -2407.7065    1295.2032   -3333.0789    6315.6465     9557.332   0.10373289   0.57997462   0.26704028 
  284000    275.36956   -2407.7498   -274.60016   -9601.4341    10057.375    10307.349   0.10380357   0.57989239   0.26719972 
  286000    279.06644   -2407.4367    2299.9335   -4472.5301    9999.5535    10891.836   0.10376898   0.57976489   0.26710644 
  288000    331.41726   -2408.0513   -155.80722   -8145.2915     8246.541    5653.8922   0.10381591   0.58003526   0.26751817 
  290000    316.72476    -2407.074    1605.7425   -5492.2704    6676.3131    4138.9764   0.10346748   0.58011794   0.26735065 
  292000     303.9578   -2407.8574    8697.9873   -3177.2396    8054.4988    4400.6865   0.10377008   0.57996744    0.2674377 
  294000    351.51389   -2407.5462    6884.7178   -6950.8159    6876.1215    9090.2698   0.10371502   0.58033057   0.26732448 
  296000    310.41757   -2407.5073    6999.8582   -3429.3564    5527.5714     2885.227   0.10381764    0.5800535   0.26751475 
  298000    263.86443   -2407.7533    3854.5139   -8846.1788    4862.3767     7275.634   0.10362535   0.57990965   0.26727244 
  300000    306.99665   -2408.2522    6883.6201   -8746.7803    11809.342    7924.3442   0.10350359   0.57925598   0.26731545 
  302000    267.63096   -2407.6726    6704.6769   -7274.9306    7735.6537     5938.562   0.10362728   0.57963333   0.26723437 
  304000    270.37904   -2407.5547    3085.7439    -3259.077    7491.6023    7251.5897   0.10356389   0.57945052   0.26750288 
  306000    313.48333   -2408.0206    3158.5595   -4173.0097     5235.118    3763.1075   0.10350003   0.57944998   0.26761931 
  308000     262.8134   -2408.1717    5019.0894    349.27018    10161.483     5835.251   0.10332492   0.57883878   0.26750231 
  310000    291.14123    -2407.896    3585.3356   -6141.3736    9159.5028    1130.1557   0.10327673   0.57900896   0.26754196 
  312000    316.19551   -2407.6096     5409.747   -8803.6552    7183.8103    4346.1332   0.10318237    0.5787133   0.26746364 
  314000    325.76103   -2407.9798    3297.6968   -7215.6971     11441.69    8730.7294   0.10321051   0.57833546   0.26743765 
  316000    291.87166     -2407.26    2279.2836   -5617.2782    5165.8151    5368.8205   0.10329999   0.57876585   0.26761759 
  318000    299.95517    -2407.392    4091.9047   -11170.486     7607.363    4464.0954   0.10306858    0.5781742   0.26742751 
  320000    299.07847    -2408.005    2571.7266   -6817.2637    7960.6132    6785.7966   0.10303125   0.57827867   0.26748874 
  322000    287.11995   -2407.4345   -886.47607   -5840.5897     8827.162     4482.305   0.10320918    0.5784766   0.26765316 
  324000    352.77281   -2408.7069    146.43861   -1140.4506    8334.0022    5054.9095   0.10311964   0.57776453   0.26743465 
  326000    290.47395   -2407.9651    2979.0406    -6366.892    7371.5177    2551.0159   0.10319014   0.57801997   0.26760019 
  328000     305.5687   -2407.8916    4206.8734   -3492.1152    10336.989    7082.3057   0.10309687   0.57761939   0.26759272 
  330000    332.62699    -2407.722    3134.9381   -3494.0619    10248.115    2563.3632   0.10320762   0.57744725   0.26764374 
  332000    306.59881   -2407.9113    912.24656   -4448.8243    5625.2136    4947.3812   0.10316838   0.57752742   0.26747998 
  334000    309.66068   -2407.9894    713.24074   -2959.6168    9338.4627    6476.3113   0.10303656   0.57722972   0.26764693 
  336000    334.54081   -2406.8535   -259.39035    -10260.86    9363.9677    4836.9635   0.10306855   0.57737873   0.26779524 
  338000    325.55268   -2407.9174    4148.8015   -5629.6643    8060.3448    4279.6223   0.10305219   0.57754826   0.26777357 
  340000    283.76426   -2407.7783    5197.9066   -7884.3841    7941.9576    5268.7492   0.10299991   0.57745814   0.26797719 
  342000    288.09135   -2407.8338     7442.036   -6366.6231    7402.1483    5829.2789   0.10328542   0.57789021   0.26776831 
  344000    325.39816   -2408.8278    6361.5927   -4556.5947    11016.931    8315.5752   0.10300565   0.57735405   0.26764097 
  346000    302.22256   -2408.1439    4850.6427   -1493.4827    10389.111    5292.8226   0.10300108   0.57756771   0.26748093 
  348000    293.34059    -2407.795     2698.472   -1828.1329    6866.0388    10035.009   0.10318062   0.57767773   0.26754473 
  350000    247.55636   -2406.8974    4465.2405    -7709.275    7785.8381    11301.527   0.10327511    0.5776449   0.26752849 
  352000    307.30549   -2407.2038    3829.4729   -4893.1776    4639.6731    12035.498   0.10348248   0.57727919   0.26742952 
  354000    301.86425   -2408.0715    2391.9084   -5301.2549    5707.8233    11081.529   0.10338579   0.57748895   0.26750313 
  356000    317.04246   -2408.1268    2769.1365     1464.902    5549.4693    12518.217   0.10349374   0.57745826     0.267457 
  358000    280.92677   -2408.1594   -768.26699   -5259.8541    5222.8421    6774.5541   0.10363631    0.5776145   0.26728281 
  360000    275.67851   -2407.1436   -42.875412   -8783.4409    8432.6453     6390.731   0.10334442   0.57765246   0.26719327 
  362000    290.69531   -2407.5219    2281.4794   -2244.4661    8100.0053    9490.4451   0.10335279   0.57729383   0.26758094 
  364000    311.65909   -2407.7318    4726.4685   -2689.0273    10215.497    12334.122   0.10328752   0.57695398   0.26784281 
  366000    316.83394   -2408.1285    3086.6416   -1854.3201    9360.7321    9094.2416   0.10320513   0.57698851   0.26790626 
  368000    284.31405   -2407.8022    5081.8755   -5130.7855    11129.095    7138.6837    0.1031999   0.57668967   0.26782193 
  370000    292.73132   -2407.6183     3682.888    -6945.141     10485.77    8294.6134   0.10287301   0.57648721   0.26831575 
  372000    318.47047    -2408.086     2058.632   -3337.2817    11037.263    6064.9748   0.10289263   0.57625124   0.26818622 
  374000    302.07156   -2406.9002    5071.1077   -4097.3505    10029.473    3691.8885   0.10258435   0.57571379   0.26824057 
  376000    321.75262   -2408.2662    2772.7853    1148.5265    7481.3901    9137.7155   0.10255537   0.57540259   0.26822656 
  378000    343.12423   -2407.9139    2659.6176   -3380.6767    9849.3821    5777.0581   0.10244712   0.57526182   0.26848827 
  380000    287.88157   -2407.6093    2845.7419    1007.4628    13222.331    3037.8876   0.10216293   0.57483899   0.26867455 
  382000    320.08499   -2408.7632   -1706.7718   -6837.9694    10604.099     10625.61   0.10198487   0.57435026   0.26848098 
  384000    286.72209   -2407.9496    2946.8233   -843.74928    9534.1564    7214.5234    0.1020911   0.57469847    0.2687625 
  386000     261.5479   -2407.8916    1954.1903   -2720.6923    12322.437     6381.953   0.10184902   0.57433891   0.26906252 
  388000    285.33214   -2407.6679    391.81306   -7956.3262    9592.9592    2427.8572    0.1017642   0.57416347   0.26884936 
  390000    330.20136   -2408.2676    3998.8364   -1125.7594    11896.146    6309.2566   0.10164235   0.57358262   0.26867602 
  392000    302.48912   -2408.4807    3584.1167   -3051.5805    10482.717    6307.0476    0.1015671   0.57334887   0.26917195 
  394000    353.76526   -2407.6178    2503.2178   -1973.4804    7698.1101    10507.066   0.10162855   0.57336428   0.26926413 
  396000    294.63446   -2408.0848    3069.6692   -3941.2229    8490.5705    6199.8096    0.1012965   0.57280347   0.26908588 
  398000     329.3116   -2408.2316    2279.9452   -6084.2468    12654.021    14197.696   0.10104412   0.57257498   0.26938726 
  400000    331.92206   -2407.6849    1264.0604   -3829.9303     10092.14    6487.1508   0.10163896    0.5726811   0.26977909 
  402000    296.48688   -2407.6249    768.79374   -3836.6619    4610.1231    7138.7542   0.10123191   0.57245031    0.2698115 
  404000    260.52745   -2408.1162    2889.0264   -8122.9226    10793.154    11112.292   0.10134593   0.57266622   0.26992099 
  406000    290.05367   -2407.7782    3297.1134   -5566.6241      9116.65    9162.3272   0.10105043   0.57231251   0.26997262 
  408000    287.83626    -2408.437    2237.2615     -7161.27    7480.1052    8239.6902   0.10081077   0.57216149   0.27016439 
  410000    310.45903   -2407.8608    2557.2062   -10375.104    6836.5824    5650.2107   0.10072778   0.57190058   0.27021193 
  412000    303.90745   -2407.8324    1713.9971   -5886.7625     6625.873    5491.5751   0.10079514   0.57196549   0.27058524 
  414000    295.81068   -2408.8404    5155.8422   -5406.4209    8913.6226    8979.1103   0.10083026   0.57187819   0.27056078 
  416000    287.90637   -2408.0049    6913.6291   -9014.8165     9705.983    5396.2781   0.10070006   0.57147388   0.27064501 
  418000    302.91739   -2407.7719    5664.8553   -6885.4951    6162.5679    2975.9433   0.10051877    0.5714171   0.27057571 
  420000    309.97142   -2407.6195    5164.1397   -9550.6796    5504.6597     9888.174   0.10041197   0.57096303   0.27062644 
  422000    294.63789   -2407.9171    3647.2661   -8002.6324    5399.0903    3837.0579   0.10033958   0.57090906    0.2709081 
  424000    283.61496   -2407.9711    3202.0284   -1911.9205    10517.253    8399.0855   0.10045399   0.57066625   0.27078763 
  426000    284.49926   -2407.5231    4881.8681   -1888.9161    14096.446    2588.3482   0.10015652   0.57093157   0.27095194 
  428000    325.75205   -2407.8266    4545.7257   -635.13279    11493.204    6473.1801   0.10012208   0.57066386   0.27065451 
  430000    304.99919   -2407.9529    2609.8028   -3882.0873    11103.345    7181.8976  0.099958943   0.57090494   0.27104795 
  432000    301.55677    -2408.053    2181.6251    -6127.818    11958.143    4381.8389  0.099840435   0.57092582   0.27106456 
  434000    266.54991   -2407.9889    2174.1616   -1002.0327    10434.767    10310.205   0.09971824   0.57085267   0.27117373 
  436000    309.68433   -2407.3411    -1208.044   -606.03728    8727.7528    9801.0088  0.099516611   0.57080543    0.2712178 
  438000    292.21082   -2407.5769    1009.0058   -6831.3874    8185.7673    9091.2129  0.099426773    0.5703854   0.27122666 
  440000    294.74139   -2408.1698    801.14995   -6776.1579    7450.5342    9326.9021  0.099596687   0.57041026   0.27111981 
  442000    324.81387   -2407.8778    1531.9282   -4054.2941    9286.0262    5667.0205  0.099480328   0.57027053   0.27134413 
  444000    251.46751   -2407.8138    281.38564   -5438.7523    7844.3989    6049.1437  0.099395555   0.57019875   0.27116419 
  446000    308.42656   -2406.4728    2943.3835   -4749.3059    10646.878    9569.4022  0.099368397   0.56985367   0.27107913 
  448000    282.59442   -2408.1565     4014.714   -6784.1617    10611.254     5019.981  0.099203598   0.57013283   0.27132609 
  450000    312.21683   -2406.8251    709.53913   -8516.6061    10808.642    2624.1155  0.099295845   0.57004872    0.2712103 
  452000    276.80631   -2407.8843    3130.9685   -8208.5103    11564.064    6950.3962  0.099136411   0.56984308   0.27117081 
  454000    267.96215   -2407.4711    3443.2773   -6041.0781    6985.8811    9057.4485  0.099010061   0.56982982   0.27102584 
  456000    310.37066    -2407.823    3480.1816   -9623.5476    11072.164    6614.8353  0.099029132    0.5697249   0.27118052 
  458000    308.51897   -2407.7545    3867.1407   -8445.7049    7543.4076    8029.7238  0.099004128   0.57006768   0.27117155 
  460000    316.68728   -2408.0834    345.88934   -6907.0663    9195.3058     6950.459  0.099116694   0.56959342    0.2714117 
  462000    275.12733   -2407.8844    -1350.672   -556.90245    9401.3993    2705.7425  0.099080033   0.56966252   0.27145722 
  464000    284.73258   -2407.9968    882.66697    1380.9599    9517.6323     3649.449  0.098857313   0.56959623   0.27128562 
  466000    291.44273   -2407.3761     1757.729   -231.51405     15690.51    3576.6749  0.098744881    0.5692937   0.27146054 
  468000    297.47194   -2406.9026    372.91933   -2491.7387    8062.2756    8232.8499  0.098766178   0.56925383   0.27143263 
  470000    304.14769   -2408.5041    3026.7204   -7603.0285    9527.7669    4850.6119  0.098792459   0.56885291   0.27139311 
  472000     294.4071   -2407.6679    2075.8247   -1556.6138    4384.2252    3619.5076  0.098817954   0.56906272   0.27155896 
  474000    271.37043   -2407.9588    3654.8396   -6660.0375    8924.0286    6654.7977  0.098567728   0.56881378   0.27152629 
  476000    332.76271   -2407.8764    2219.3237   -7599.5656    5769.9716    5670.7194  0.098447763   0.56887332   0.27167575 
  478000    298.39062   -2408.0839    242.20452   -6302.4999     9274.985    5956.0767  0.098539764   0.56872289   0.27182102 
  480000    285.93079   -2408.4743   -1124.6085   -1904.0144    5927.3381    5076.4198  0.098450364    0.5684819   0.27198881 
  482000    310.56892   -2408.7331   -2159.5036   -1187.1128    9263.2226      4074.47  0.098360237   0.56833671   0.27186992 
  484000    314.05968   -2407.1698    1627.3495   -1988.8524    9977.2854    5286.9215   0.09829329   0.56829817   0.27193144 
  486000    280.38353   -2407.7673    2032.2773    962.30924    10833.201    9375.7996  0.098265845   0.56812208   0.27192524 
  488000     292.8375   -2408.0842    5763.6291   -2050.5717    12525.124    10477.346  0.098200664   0.56796456   0.27193039 
  490000    295.64211   -2407.5023    7392.2939   -4798.0954    8024.1807    4533.8133  0.098063208   0.56768611   0.27196194 
  492000    312.43561   -2408.1629    6494.8939   -6141.4189    14203.751     6447.547  0.098015787   0.56729564   0.27194355 
  494000    296.96059   -2408.1245     5362.035    2198.1482    11441.335    8450.1957  0.097966304   0.56741316   0.27208946 
  496000    296.08197   -2408.0965    2425.6224    182.58443    14761.928    10456.366  0.097828693   0.56731051   0.27206057 
  498000    278.68039   -2408.7534    809.47044   -1477.4955    14617.737    8130.4591  0.097919659   0.56762585   0.27228551 
  500000    313.17378   -2407.3993    505.67731   -3009.2813    9192.5764    7367.5768  0.097676794   0.56726952   0.27219977 
  502000    291.49937   -2408.2969    4333.1663   -3814.1943    9403.4604    4313.3714  0.097607334   0.56713284   0.27230602 
  504000    268.82446   -2407.6159    4905.4093   -1723.1042     5782.516    6820.6236  0.097560373   0.56730507   0.27255016 
  506000    283.22301   -2408.0207    3476.6438   -3531.4547     11236.21    2619.2134  0.097513695   0.56703786   0.27246224 
  508000    287.46825   -2407.5099    663.07419   -6361.8067    8995.1336    4491.3336  0.097372723    0.5671252   0.27257106 
  510000    280.61724   -2407.6689    1676.3222   -8590.3968    13123.798    4605.9927   0.09731636   0.56683955   0.27235837 
  512000    303.71399   -2407.6325    1881.8404   -8115.2695    5524.8356    5841.7402  0.097294145   0.56696117   0.27273869 
  514000    293.80345   -2407.5268    2360.0103   -4896.7004    10768.515    5638.7689  0.097329199   0.56688789   0.27256858 
  516000    314.88767   -2407.4673     4558.141   -862.91065    7654.4762    8470.6418  0.097204888   0.56691281   0.27271002 
  518000    313.99309   -2407.7027    4230.1188    2489.9522    10868.943    6666.0041  0.097206022    0.5666381   0.27261274 
  520000    325.35109   -2407.7968    6901.5716   -3940.3167    10456.993    6528.0544   0.09699786   0.56647549   0.27278493 
  522000    298.28629   -2407.6914    6538.3222    -4100.621    10446.595    5883.8467  0.097037707   0.56626949   0.27268148 
  524000    284.04444    -2407.945    6860.8439   -6273.2478    10832.511     5432.579  0.097113606    0.5663794   0.27278948 
  526000    309.13859   -2407.8243    7846.3425   -5397.6946    12398.692    8561.8628  0.096997795   0.56646491   0.27286956 
  528000    293.93164   -2407.7314     5213.269    415.40481    10214.823    6098.0909  0.096847915   0.56625176   0.27287593 
  530000    285.69318   -2408.8812    110.01399   -4164.9751    11430.617    7245.0827  0.096781622   0.56602459   0.27284784 
  532000    288.92714   -2408.1037   -1827.9744    301.87643    11946.351    7007.0383  0.096771418   0.56612749   0.27293402 
  534000    313.84548   -2408.0434   -2200.9508   -2602.0517     7712.966    961.34515  0.096731641   0.56590205   0.27285327 
  536000    265.28343   -2408.6248    691.31753    483.37645    9894.4981    7433.3791  0.096634145   0.56592835   0.27295975 
  538000    290.47735   -2407.7601    2703.8795     1570.476    12687.602    8431.9968  0.096551349   0.56577905   0.27286523 
  540000    298.28437    -2408.649    1317.5368   -5355.3256     3064.974    7664.4837  0.096432748   0.56611238   0.27304772 
  542000    310.29192   -2407.7852    1738.8039   -5308.0025    5479.2013    7898.3739   0.09639865   0.56596423   0.27288131 
  544000    303.44564   -2408.1637    4312.6776   -4440.3164    10083.149    7140.5715  0.096302418   0.56570272   0.27293644 
  546000    317.38253   -2407.1893    293.10076   -4619.4828    11137.675    6855.7136  0.096279975   0.56566125   0.27293209 
  548000     333.0093   -2408.2719    1553.8748   -3447.9186    11801.434    6745.5902  0.096072136   0.56550703   0.27302164 
  550000    297.22648    -2407.778    1620.5988   -2215.8117    10720.469    7564.0641  0.096037297    0.5656035   0.27299793 
  552000    292.83763   -2407.6589     5378.194   -6264.9013    12769.696    7618.3306  0.096043544   0.56561475   0.27314102 
  554000    293.83815   -2407.8594    6627.4479   -473.32694    14621.079    5438.8579   0.09613193   0.56555252   0.27308196 
  556000    343.25758   -2407.4005    3891.3977   -2613.9907    8167.7697    2886.7923  0.095976626    0.5655304   0.27321627 
  558000    298.26163   -2408.4079    6199.1809   -3535.4886    7213.7392    4001.7845  0.095956628   0.56555223   0.27316976 
  560000    285.83057   -2407.9742    4931.4959   -6333.1673    9346.9524    7816.3931  0.095917082   0.56527423   0.27310433 
  562000    309.02667   -2407.4493    4786.4768   -10533.272    8187.2694     12951.84  0.095936875   0.56536458   0.27344262 
  564000    285.49584   -2407.6227    7138.0368   -2643.4538    11275.806    8870.9913  0.095916879   0.56537241   0.27350595 
  566000    309.69869   -2408.1842    2943.9108   -419.48383    14778.612    11153.358  0.095846881   0.56496998   0.27341827 
  568000    307.76334   -2407.8384    3892.9847   -1257.4509    8223.2304    7970.5932  0.095792588   0.56520509   0.27344326 
  570000    328.99575   -2408.1355    4153.9898    2601.4748    8238.5447    5928.5508  0.095810813    0.5651063   0.27353211 
  572000    276.46398   -2407.3549    5035.4675   -3416.7782    11367.841    6842.7456  0.095649582   0.56509398   0.27354894 
  574000    291.91681   -2407.7469    4555.5374   -2260.2996    16875.667    1427.1021  0.095688878   0.56503556   0.27356787 
  576000    336.73504    -2407.511     1314.585   -8735.3711    13659.865    8246.7055  0.095615857   0.56492251   0.27343212 
  578000     326.7793   -2408.2471   -1732.5397   -5794.2477    10400.719     6602.183  0.095644877   0.56510669   0.27369342 
  580000    263.81718   -2407.4864    -1605.338    433.67454     6716.495    6907.0553  0.095624227   0.56505454   0.27352854 
  582000    299.28172   -2407.5396     -3638.13   -1817.4296    10397.347    11147.467  0.095567751   0.56501779   0.27352276 
  584000    281.55686   -2407.3096    349.45686   -6928.7151    12108.485     6749.914  0.095595247   0.56496529   0.27356246 
  586000    286.06285   -2407.6581   -220.93695   -2648.8323    7464.1521    3589.0354  0.095602545   0.56515327   0.27371003 
  588000     294.5861   -2408.1586   -313.42763   -8630.0312    6349.6088    44.092332  0.095470621   0.56495463   0.27370508 
  590000    309.52475   -2408.0845    3183.0063   -3884.9223    6153.1684    1246.1964  0.095520186   0.56485404   0.27365582 
  592000    337.06071   -2407.6022    3987.4046    -1850.976     10899.36    10935.517  0.095480052   0.56484851   0.27357007 
  594000     277.8368   -2408.2242    4923.1582   -2259.8178     12107.64    9092.9165  0.095509641   0.56481054   0.27368967 
  596000    302.73313   -2407.4801    1613.4325   -6489.3246    11144.986     6350.077  0.095353397   0.56491495   0.27380616 
  598000    273.72467   -2407.5484    3032.2432   -2950.2213    12929.673    7748.0779  0.095312017   0.56442829   0.27369615 
  600000    269.14542    -2407.752    4353.8493   -2288.5269    10325.221    754.49001  0.095274874    0.5644891   0.27379909 
  602000    337.30197   -2408.0227    7497.9382    384.97475    12003.028     5805.533   0.09534891   0.56454143   0.27381971 
  604000    318.47667   -2407.3588    5193.2955   -279.50377     11576.54    2927.8513   0.09529113   0.56442713   0.27383366 
  606000    279.55394   -2407.9255    5034.0184   -1053.8526    10606.044    4922.3298  0.095221932   0.56448531   0.27365009 
  608000    341.40396   -2407.4643    1168.6615   -3596.6947    11406.883    5748.3541  0.095327979   0.56448384   0.27367552 
[...]
 3484000    297.10348   -2409.8436    621.95375    1691.6224    10246.778    6979.7982  0.077430147   0.54881801   0.30342285 
 3486000     313.3919   -2409.6326    168.90438   -370.98011    12610.164    8926.6153  0.077417967   0.54881916   0.30347374 
 3488000     362.0094   -2410.1863   -1783.3242   -4701.4303    8190.7851    5434.8958  0.077398144   0.54883411   0.30350283 
 3490000    319.56011   -2409.7627    733.16777   -3339.7346    9960.8079    6296.3669  0.077376681    0.5487526    0.3034703 
 3492000    311.75784   -2410.5649    2602.2938   -6549.7127    12863.771    8075.4374  0.077353642   0.54874146   0.30354593 
 3494000    318.28318   -2409.8858     2794.202   -6304.0024    10236.707    8214.2114  0.077336614    0.5487291   0.30353349 
 3496000    292.21767    -2410.005   -2324.8277    -3329.953    10952.657     13391.31  0.077311333   0.54868609   0.30357166 
 3498000    285.61614   -2409.7832   -2146.9347    -4316.308    11099.139    6944.2541  0.077298472   0.54861355   0.30358447 
 3500000    324.80994   -2409.7025    1510.8773    2234.1845    11182.223    8548.9147  0.077293371   0.54863062   0.30363041 
 3502000    310.77211    -2410.102   -873.96014   -4286.3659    12148.697    2925.5393  0.077256682   0.54858438   0.30364255 
 3504000    341.58472   -2410.5904   -959.13775    35.743147    10328.899    5452.9264  0.077258245    0.5485336   0.30363528 
 3506000    316.71951   -2410.2769    2394.2711    2755.5549    10723.268    9449.2112  0.077227866   0.54851793    0.3036791 
 3508000    284.70174   -2409.9513    3192.6722    2087.5296    10655.052    6872.8962   0.07721905   0.54853396   0.30374671 
 3510000    315.18377   -2410.2583     3339.958    2983.3608    9930.5861    3509.0563  0.077215568    0.5485224   0.30373563 
 3512000    320.99321   -2410.5523     397.6268   -3085.4018    11682.112    4028.3631  0.077193984   0.54844183    0.3037445 
 3514000    284.41132   -2410.2038     1786.331    596.94457    7361.2528    7141.3078  0.077178845   0.54844159   0.30374156 
 3516000    293.09726     -2410.13    4418.6606    1018.4699    6498.6961    5243.8305  0.077168823   0.54841998   0.30380282 
 3518000    301.14001   -2410.2876    1845.0481   -2739.8494    10145.865    5469.5733    0.0771581   0.54840666   0.30387685 
 3520000     275.6917   -2410.1736    6099.3329   -2775.0711    12472.582     6972.812   0.07713554   0.54835457   0.30385555 
 3522000    266.14764   -2409.7877    6089.0783    -1998.586    10238.526    7370.3551  0.077119343   0.54833651   0.30391422 
 3524000    325.66788   -2410.2008    5565.4764    861.23562    10018.731    6607.8184  0.077093827   0.54831657   0.30394829 
 3526000    331.18225   -2410.1884    5707.3801   -882.12084    9235.3095    7358.2479  0.077083899   0.54830666   0.30396363 
 3528000    263.95405   -2409.7234    3431.8788    796.30718    12198.502    6111.5935  0.077050787   0.54822476   0.30398947 
 3530000    307.32464   -2410.3724    5946.0568   -2529.9359    12999.784    11257.419  0.077033013     0.548249   0.30401605 
 3532000    291.50424   -2410.3549    6917.6786     1692.635       7912.5    9590.5295  0.077016181    0.5481979   0.30407906 
 3534000    322.39078   -2410.3078    5537.7875   -2959.9509    9943.3441    9972.1441  0.076991051   0.54815703    0.3040544 
 3536000    327.85468   -2410.2681    228.56558   -1454.3381    8991.0188    4545.1383  0.076986132    0.5481957   0.30411299 
 3538000    310.19919   -2410.6115    1333.9063     600.8086    6992.4835    6264.4896    0.0769559   0.54811182   0.30411105 
 3540000    295.63592   -2409.6703    3330.2864     470.6499     8970.426    5517.1625  0.076941031    0.5481011   0.30413338 
 3542000    278.97687   -2408.7319    5303.8742   -6371.1387     8339.484    7197.0983  0.076915016   0.54804557   0.30418153 
 3544000    297.47802   -2410.4801    4436.7792    26.858136    9987.9102    9505.4701  0.076913728   0.54804697   0.30422939 
 3546000    302.96335   -2410.4425    2659.1504   -2537.4173    4004.9689    3851.3401   0.07688361   0.54800239   0.30423513 
 3548000    304.93101   -2410.7498     2505.892   -5026.6199    8918.8355    4423.5057  0.076861299   0.54794824   0.30423901 
 3550000    261.18089   -2410.2649    3621.4947   -5394.4727    9320.4797    10565.008  0.076854704   0.54795595   0.30427866 
 3552000    288.86622   -2409.7406    4472.1391   -3204.1952    8520.3337     5879.818  0.076820435    0.5479261   0.30435785 
 3554000    311.56798   -2410.1516    83.769927   -5478.6553    5530.5057    2474.9445  0.076808665   0.54786833   0.30434162 
 3556000    315.93373   -2410.0953    3601.1086   -4754.5084      7930.98    8656.1053  0.076778544   0.54782205   0.30436459 
 3558000    295.51879   -2410.3852    2338.0837   -3552.4897    12383.093     11070.05  0.076765652   0.54781537   0.30441101 
 3560000    317.36841   -2410.0734    1148.3572    124.16485    15171.374    11929.645  0.076757885   0.54784158   0.30444395 
 3562000    306.98798   -2410.2081    530.33856    -961.9373    10367.846    9058.4502  0.076743512   0.54784325   0.30446884 
 3564000    306.26851   -2409.9165   -3335.1037   -6409.7237    8250.9389    9346.2643  0.076740668   0.54784237   0.30448671 
 3566000    315.57523   -2409.9074   -2220.1614    2277.2085    8967.3394     9727.828   0.07674945   0.54784899   0.30453846 
 3568000    284.32088   -2409.6072    227.61503    2287.9754     9692.202    13819.132  0.076729001   0.54784792   0.30456264 
 3570000    307.87686   -2410.6053   -584.96953   -2577.3815    7268.4271    9103.2978  0.076717026   0.54780345   0.30454024 
 3572000     307.3919   -2409.2861   -191.98876   -5028.7004     12056.38    10353.927  0.076697029   0.54775216   0.30452077 
 3574000    277.66846   -2410.6049    255.95736   -9069.4638    8355.4121    7972.6878  0.076694661   0.54779033   0.30457652 
 3576000    301.28672   -2409.7125   -2103.3815   -9355.5393    9866.0051    7721.7385  0.076660387   0.54777027   0.30459283 
 3578000     266.4511    -2410.579    232.23298   -6579.9529     9072.829     7025.659  0.076652554   0.54777143     0.304605 
 3580000    339.93208   -2409.9373     4966.602   -4162.7832    9362.1823    5536.6899  0.076642446   0.54773058   0.30462301 
 3582000    290.36525   -2409.6742    5426.8798   -7272.2788    9729.6917    6106.4903  0.076620034   0.54771896   0.30464766 
 3584000    292.19643   -2410.2119    5971.8079   -5357.4424    7481.5634    5154.0989  0.076613446   0.54774424   0.30467549 
 3586000    268.06588   -2410.3368    3447.5351   -4933.4013    11726.784    5418.1534  0.076600927   0.54769166     0.304669 
 3588000    274.18993   -2410.1421     4496.731   -1011.6763     9160.897    4004.8327  0.076591925   0.54772003    0.3047117 
 3590000    301.07556   -2409.8238    3216.6495   -3386.4225    12467.281    4523.3102  0.076576851   0.54769663   0.30471444 
 3592000     269.7562   -2410.0975    4894.4996   -4678.7036    14417.267    5878.2804  0.076572488   0.54771017   0.30476234 
 3594000    296.99216   -2410.4279    3464.8177   -4285.2251    8854.9487    6217.2007   0.07656703   0.54768045   0.30478847 
 3596000    316.80508   -2409.7504    3090.0966   -5814.5623     10180.61    2874.3719  0.076547086   0.54766437   0.30481584 
 3598000    245.69944   -2410.7263    4158.6855   -6660.7063    9902.5245    2994.4395  0.076539433   0.54763372   0.30482216 
 3600000    301.39612   -2410.4436    5052.6691   -3260.5084    10300.016    5534.6545  0.076530949   0.54766501   0.30487107 
 3602000    269.14882   -2409.5249   -2257.4532   -1804.5394    11055.338    8533.3459  0.076521099   0.54766406   0.30494865 
 3604000    297.10061   -2410.1883   -1938.6671    -3100.553    9257.0071    12444.786  0.076524797   0.54768648   0.30499068 
 3606000    292.63863   -2410.3952   -1140.9352   -2876.2284    11398.764    12816.772  0.076512535   0.54764349   0.30496404 
 3608000    287.34121   -2410.0317    3608.3391   -9132.0003    10031.795    9068.4764  0.076510778   0.54763925   0.30499227 
 3610000     267.2569   -2409.8631    2820.0925   -3572.4355    10607.982     5952.958  0.076520456   0.54766919   0.30503308 
 3612000    274.88594   -2410.6393    1057.1308   -1777.9627    9217.2726    8369.1212  0.076499012   0.54762296   0.30509906 
 3614000    292.02347   -2410.7524    -1454.503   -3141.0393    8220.8808     1106.151   0.07650195   0.54760586   0.30506591 
 3616000    333.26847   -2410.6118     2799.448   -486.29834    7472.9293   -1205.2784  0.076475411   0.54757266   0.30507369 
 3618000    265.34276   -2410.3672    2278.3875   -727.80963    7464.6386    3451.3009   0.07647213   0.54757363   0.30511178 
 3620000    292.70724   -2410.1123    1393.5423   -498.54553    9376.8656    4549.7346  0.076462023   0.54760444   0.30515038 
 3622000    344.73212   -2410.4597    4753.7991   -1878.8407    14842.576    3102.6791   0.07645123   0.54756601   0.30516091 
 3624000    291.22196   -2410.0962    3862.2557   -3794.8599    7963.3594    5699.8613  0.076429408    0.5475867   0.30516984 
 3626000    298.25675    -2409.711    1603.5916   -1182.7864    13467.021    1563.3377  0.076424053    0.5475359   0.30524292 
 3628000    343.31868   -2410.5276    1609.5713   -5190.7808    9625.9869     8215.892  0.076446675   0.54758468   0.30527434 
 3630000    287.86171   -2409.8517    1439.6247    5625.7102    13654.668    4553.8963  0.076411089   0.54757381   0.30528406 
 3632000     309.8826   -2409.8528     1173.882   -1848.5119    11041.165    9382.6399  0.076402813   0.54754338   0.30525166 
 3634000    337.68703   -2410.2175    3810.7917   -3063.8116    8291.6938    8930.7218  0.076418394   0.54756001   0.30532405 
 3636000    281.01405   -2410.8174    4206.6134   -2627.6256    10743.738    8584.7712  0.076388367   0.54755368   0.30539764 
 3638000     290.3775   -2410.7819    4499.7456   -7021.4458    4950.4333    4826.1603  0.076374768   0.54755964   0.30540428 
 3640000    305.00403   -2410.4951    4202.7783    -802.5621    5891.8693     3901.423   0.07637153   0.54755746   0.30541358 
 3642000    273.87284    -2409.655    2302.1352   -3798.1447    12981.665    11554.599  0.076356707   0.54750888   0.30541729 
 3644000    265.26994   -2410.3755    992.76456   -3455.1647    9906.9473    10148.486  0.076346304   0.54755926   0.30547547 
 3646000    280.44376   -2410.4928   -3393.3927   -7961.4227    7766.8653    9636.0552  0.076340226   0.54754827   0.30548336 
 3648000    316.97804    -2410.206    3866.1437    -2446.371      10368.7    8699.8232  0.076335164   0.54755848   0.30552968 
 3650000    295.55766   -2410.0394    2479.5993   -5864.7483    9226.3543    6922.8294  0.076321466    0.5474933   0.30551085 
 3652000    285.27613   -2410.4349    437.19615   -5174.7261    6056.6096    7505.1524  0.076322701   0.54752694   0.30552182 
 3654000    256.97281   -2410.7738   -1039.9739   -5896.0026    2817.5501    4726.0629  0.076308205    0.5475189   0.30555752 
 3656000    293.14697   -2409.4827   -901.66322   -8578.1254    11521.991    4980.9109  0.076303437   0.54749555    0.3055571 
 3658000    304.08673   -2410.7241     1143.248   -8427.4233    4899.7629    6596.3496  0.076274311   0.54747717   0.30556789 
 3660000    276.88021   -2409.9738    954.67859   -4859.8705    8122.0292    7460.6466  0.076252867   0.54746307   0.30556876 
 3662000    312.16232   -2410.6112    3543.5611   -5546.3357    8531.8302     7663.448  0.076243357   0.54748127   0.30562914 
 3664000    321.70495   -2409.8445     3202.455   -5504.8298    12093.901    5243.5805  0.076226305   0.54749182   0.30566688 
 3666000    318.76005   -2410.4617    5482.3981   -866.47953    10690.533    10235.135  0.076215872   0.54745329   0.30564925 
 3668000    324.05939   -2409.2909    3595.6896   -6933.1099    9277.0895    6757.4011  0.076196381   0.54745987   0.30568156 
 3670000    291.45303   -2410.0939    485.93355   -165.11285    11224.398      7444.61  0.076218507   0.54746568   0.30569998 
 3672000    302.90621    -2410.787   -2996.4529    -2951.244    2621.9257    1180.8373  0.076196414   0.54748471   0.30573715 
 3674000    305.83793   -2409.6848   -1167.0635   -2902.4229    10878.355    11911.962  0.076193012   0.54740507   0.30573961 
 3676000    273.53087   -2410.4871    413.85034   -2904.6072    6156.0118    12364.213  0.076193872   0.54747307   0.30580714 
 3678000    304.98733   -2410.2531     708.7281   -6008.7918    10910.748    10899.743  0.076169723   0.54739415   0.30577799 
 3680000      301.582   -2410.2348    3760.2705   -1236.0929     10130.46    7287.5069  0.076168441    0.5473983   0.30578846 
 3682000    302.02918    -2409.536    1096.9944   -5110.5023    9742.3465    8526.5245  0.076158611   0.54739799   0.30581614 
 3684000    323.91274   -2410.0336    329.24514    332.81566    5378.4951    6757.4493  0.076182893   0.54742235   0.30587146 
 3686000    340.95159   -2409.7861    971.98913    -7203.108    9316.9241    7292.7788  0.076172276   0.54740515   0.30590032 
 3688000    258.98741   -2409.5368    5292.3867   -2175.5533     7995.407     6580.198  0.076172623    0.5473736   0.30591442 
 3690000     324.0563   -2410.0736    6763.8008   -6080.1892    8222.3629    4724.4162  0.076166838   0.54740011   0.30596132 
 3692000    263.81653    -2410.011    7387.1283   -4519.8345    7206.4253    6280.3188  0.076158805    0.5473739   0.30595051 
 3694000    295.67887   -2409.1345    2194.2119   -8503.4106    10481.783    6725.4812  0.076143752   0.54737503   0.30597414 
 3696000    299.15617   -2409.9797    3804.8429   -3469.0647    7366.4616    4934.7909  0.076139979   0.54736664   0.30599554 
 3698000    324.24326   -2410.1927    1776.3165   -5219.0745    6214.7724    8878.8668  0.076124524   0.54736904   0.30602608 
 3700000    317.29632   -2409.1674    5939.5763   -3820.0196    3432.0392    8142.0391  0.076095631   0.54737263   0.30602706 
 3702000    306.61519   -2410.4409    3789.1452   -4701.2686    4868.3259    4978.9123  0.076078258   0.54735318   0.30607784 
 3704000    293.40012   -2410.8006    4172.3176   -4270.2801    4954.4869    4232.9368  0.076058448   0.54737557    0.3061208 
 3706000    285.44744   -2408.8629    5762.8016   -2880.3693    8562.5178    7551.1226  0.076054979   0.54733899   0.30612293 
 3708000    319.70692   -2409.9591    1196.9177    -5898.782    11325.373    9803.2564  0.076031878    0.5472866   0.30610043 
 3710000      298.853   -2409.8719    1061.1396   -332.77192    12897.334     10712.65  0.076040051   0.54731917   0.30616233 
 3712000    294.78798    -2410.138   -2899.0759    1705.6797    12547.896    4031.0808  0.076032659   0.54729846   0.30619401 
 3714000     317.8477   -2410.7889    137.53079   -315.53708    11137.493    6323.7285  0.076008927    0.5472641   0.30619377 
 3716000    261.01945   -2409.8732   -1979.5879    2935.5234    11370.944    9689.7895  0.075996559   0.54725254   0.30618627 
 3718000    313.73626   -2409.4303    2331.4864   -3552.3899    10756.972     7873.621   0.07598996   0.54722568   0.30622703 
 3720000    296.28042   -2410.7016    1036.9414   -5821.2427    9437.0372    9174.7882  0.075983844   0.54724049   0.30623915 
 3722000    295.98819   -2410.5559   -2108.5664   -4700.5732    9848.8476     4063.386  0.075961081   0.54725156   0.30624511 
 3724000     349.3635   -2409.8255     81.96852    -7903.112    12588.877    2822.7573  0.075955796   0.54723555   0.30626148 
 3726000     268.2064   -2410.1661    2289.3954    18.534274    12507.347    5471.5593  0.075965303    0.5472694   0.30629041 
 3728000    291.99409   -2410.5342    1798.3752   -994.09294    7905.9783    5208.4266  0.075940343   0.54724755   0.30627873 
 3730000    310.96582   -2410.4661    2892.2152    1372.1379    11290.746    6540.2056  0.075934315   0.54721826   0.30627357 
 3732000    310.14718   -2410.6306   -635.14647    2598.6667    9458.7577    3049.8922  0.075921953   0.54719466   0.30629949 
 3734000    344.82074   -2409.7776     2979.615   -1404.9414    6423.2572    4044.9396  0.075900759   0.54716274   0.30631311 
 3736000     327.8571    -2410.162    2748.2724   -2887.6442    8154.9232    4364.4893  0.075903208   0.54721209    0.3063557 
 3738000    299.52909   -2410.0705    4100.3051   -5108.9202    10717.966    7036.1292  0.075886246   0.54715402   0.30638544 
 3740000    270.93224   -2410.5131    4564.2628   -4270.8146    8265.7267    10543.482  0.075881988   0.54715405   0.30639994 
 3742000    290.88077   -2410.4733    4390.3229   -2976.8268    8189.7776    5904.2163  0.075870497    0.5471306   0.30640579 
 3744000    324.11107   -2410.1081    526.54266   -8661.8985    9196.3844    10379.222  0.075865773   0.54714215   0.30641788 
 3746000     278.0212   -2410.0098   -1552.6148   -2680.8933    7006.8459    8526.2424  0.075863956   0.54715256   0.30645025 
 3748000    297.40441    -2409.937   -2565.4994   -5131.8501    5773.9951    4591.9322  0.075843299   0.54711371   0.30647531 
 3750000    284.86835   -2411.0919   -117.15408   -3143.7685    9729.5393    5330.5986   0.07583187   0.54709012   0.30646367 
 3752000    302.56641    -2410.383   -1688.1088   -5495.7416    4728.8948    7398.6917  0.075809638   0.54707461   0.30648268 
 3754000    321.72438   -2410.1114   -2466.2079   -3699.4525     6734.661    10969.088  0.075808149   0.54704389   0.30650525 
 3756000    313.24681   -2409.2761   -1202.4371   -1136.0583    4022.8816    5012.8378  0.075785085   0.54702409   0.30650146 
 3758000    282.60907   -2409.7606   -3004.1009   -3108.6166    9636.4372    8736.1044  0.075775535   0.54698335   0.30650748 
 3760000    306.45294   -2409.9211   -4303.4065   -3948.4871    7964.9048    11382.988  0.075759429   0.54700291    0.3065338 
 3762000    331.79333    -2409.705    3714.6744   -5674.1887     12638.72    10503.952   0.07574903   0.54699522   0.30656531 
 3764000    307.40156   -2410.2692    587.47568   -4604.3198    9916.9207    8283.9729  0.075743372   0.54700371   0.30656067 
 3766000    346.20196    -2409.548    4449.7778   -4151.1755    6364.2176    4256.3052  0.075721182    0.5469586   0.30657539 
 3768000    281.84383   -2409.8408    3373.0541   -1364.9501    8106.8347    7698.1436  0.075724938   0.54692123   0.30656426 
 3770000    271.66908   -2410.0673    3667.2306   -2513.2725    11815.123    7659.1797  0.075712277   0.54695502   0.30658225 
 3772000    312.27832   -2410.2364    3758.6516   -9281.6693    11093.514    6244.8276   0.07569192   0.54691202   0.30658214 
 3774000     310.7185   -2410.7347   -1052.0916   -11276.068    9546.1486    8151.6433  0.075697783    0.5469049   0.30663867 
 3776000    290.67464   -2409.7628   -409.18892   -3298.3395     9739.433    15611.987  0.075691429    0.5468498   0.30661284 
 3778000    308.80934   -2410.4433   -2379.1798   -6410.6175    10780.221    10414.385  0.075675744   0.54687361   0.30664294 
 3780000    289.75063   -2410.2459    373.84826   -2359.7445    11230.219     10773.99  0.075671849   0.54683969   0.30666613 
 3782000    304.90413   -2410.4274   -1784.3613    1335.5427    7198.9472    7015.7954  0.075655096   0.54683671   0.30671786 
 3784000    299.84791   -2409.9106    578.53261    4312.0395    7941.2581    5846.9865  0.075640159   0.54679321    0.3066764 
 3786000    301.90452   -2410.3208    243.82458   -4147.0497    12721.599    9058.0423  0.075622592   0.54676756   0.30666919 
 3788000    339.56916   -2410.5777    1790.7977   -2156.3155     6967.778    4019.4787  0.075626047   0.54681974   0.30674343 
 3790000    313.02656   -2409.9452   -999.41838   -1427.8234    10516.852    2251.4255  0.075620342   0.54673652   0.30673697 
 3792000     291.0847   -2410.5419    2060.2877    2074.3998    9857.9591    5400.4409  0.075596918   0.54672614   0.30671094 
 3794000    301.85763   -2409.9656    -67.97007   -6495.4072    11476.689    4682.7138  0.075565564   0.54664397    0.3067239 
 3796000    289.46938   -2409.7043    3556.9453   -5905.4776    11557.884   