ITEM: TIMESTEP
200
ITEM: NUMBER OF ATOMS
400
ITEM: BOX BOUNDS pp pp pp
0.0000000000000000e+00 6.3245553203367592e+01
0.0000000000000000e+00 6.3245553203367592e+01
-3.1622776601683800e-01 3.1622776601683800e-01
ITEM: ATOMS id type x y vx fx 
1 1 62.1484 62.6598 -1.06553 0.320735 
2 1 3.24374 1.16691 0.871117 12.3665 
3 1 5.50724 62.3433 -0.817312 0 
4 1 10.0784 1.69505 0.590391 -0.00939993 
5 1 13.3269 62.3071 0.677752 0 
6 1 16.5053 1.51146 -2.37726 1.90749 
7 1 19.5754 62.7707 -1.59989 0.201464 
8 1 21.5303 62.9966 1.59599 -0.201464 
9 1 26.4985 0.555507 -0.188797 -11.0032 
10 1 27.2964 63.155 0.224974 11.0032 
11 1 30.1551 61.7678 -1.46764 0 
12 1 33.5025 63.2402 -1.28252 0 
13 1 36.9376 61.8597 -1.01269 -0.0195639 
14 1 40.2949 1.49512 -0.807538 0.0777605 
15 1 43.1661 62.6767 -1.24952 -1.39173 
16 1 48.0653 0.390746 0.664674 0.0671405 
17 1 49.3537 61.9033 1.71488 -1.79035 
18 1 54.8829 62.418 1.10859 -0.11149 
19 1 57.156 1.41638 0.234993 0 
20 1 60.1892 1.51013 0.0258331 -0.820246 
21 1 1.49338 2.29587 1.84747 1.72995 
22 1 2.60823 1.95177 -1.69779 -14.0965 
23 1 7.34437 3.74589 1.01981 0 
24 1 10.0301 3.50685 0.544409 0.00939993 
25 1 13.5336 2.18869 0.884531 0 
26 1 16.5072 2.64572 -0.0710257 -6.15825 
27 1 17.4903 2.25083 2.3546 4.25076 
28 1 21.5155 3.91105 -0.942368 0.412396 
29 1 25.6252 3.10608 0.327013 0 
30 1 29.5853 2.31429 1.12476 0 
31 1 32.2338 3.9061 0.610976 0 
32 1 36.0024 3.54954 1.28348 0.398174 
33 1 37.6659 2.96378 -0.34757 -0.398174 
34 1 40.3428 2.81341 -0.773984 -0.0777605 
35 1 45.1818 3.60023 0.901036 -0.129095 
36 1 47.2851 3.90688 -0.126478 0.0799913 
37 1 50.1182 2.41257 -0.478205 0 
38 1 53.3597 2.76085 -0.399 0 
39 1 55.9242 4.46808 -0.898977 0.658876 
40 1 59.682 2.72924 -0.321126 0.820246 
41 1 0.774106 5.16897 0.79028 0.0782282 
42 1 2.82385 6.0555 -0.354601 -0.0782282 
43 1 7.92464 6.18933 1.67299 0.138311 
44 1 8.66765 7.85387 -0.892092 -0.138311 
45 1 14.3542 6.52518 2.03264 0.709401 
46 1 14.7422 7.65834 -1.39677 -0.709401 
47 1 18.4935 7.88674 -0.460503 0.0400229 
48 1 21.7309 5.14285 -0.0831111 -0.412396 
49 1 26.2197 6.52792 0.94364 0.245781 
50 1 29.2409 6.14677 0.780367 0 
51 1 33.0848 7.93059 1.34924 -0.290099 
52 1 33.3265 6.17382 -1.56568 -0.0554873 
53 1 39.6207 6.50016 1.91572 1.61836 
54 1 40.6994 7.29857 -0.642944 -1.55218 
55 1 44.428 5.11373 0.187326 0.247628 
56 1 48.8571 5.00409 1.38658 -0.198525 
57 1 49.7359 7.67917 -0.838344 0.323079 
58 1 53.4814 6.38628 -0.277324 0 
59 1 57.1289 5.48502 0.130444 -0.554341 
60 1 59.2392 5.94884 -0.864519 -0.104535 
61 1 0.748136 8.90352 0.748136 0 
62 1 3.97872 10.4958 0.712813 5.53201 
63 1 5.77228 8.45736 -0.552277 0 
64 1 7.89298 10.617 -1.59385 0 
65 1 13.1216 10.4949 0.339738 -0.397852 
66 1 17.4785 9.19882 1.74205 0.637399 
67 1 19.3824 9.22545 0.314165 -0.677422 
68 1 22.6048 11.0289 0.283381 0.0810759 
69 1 26.1519 8.37959 0.885009 -17.9 
70 1 27.0915 8.00552 -1.42255 17.6543 
71 1 31.2739 7.78328 -0.128965 0.345586 
72 1 35.4939 9.3804 1.0596 1.71718 
73 1 36.5794 8.93118 -1.71871 -1.71718 
74 1 41.2936 9.15407 0.181828 0.00148932 
75 1 43.5851 10.0465 -0.74293 -0.968688 
76 1 46.494 9.28892 -0.940149 0 
77 1 50.0277 9.06678 -0.592545 -0.269459 
78 1 52.3638 9.52867 -1.40198 -0.0536198 
79 1 56.781 8.01533 -0.139971 0 
80 1 61.3628 10.5486 1.27955 0 
81 1 61.7096 14.0386 -1.53599 0 
82 1 2.98361 10.8719 -0.0750314 -5.53201 
83 1 5.42673 13.6179 -1.05321 -1.98259 
84 1 9.59793 14.2715 0.1111 0 
85 1 11.4051 10.8792 -1.11009 0.419246 
86 1 14.0795 12.684 -1.73435 -0.0468264 
87 1 18.757 13.7941 0.975224 0.73471 
88 1 22.7052 12.1663 0.754739 -0.0810759 
89 1 25.4045 11.4518 0.165089 0.29297 
90 1 26.9476 12.4134 -1.57178 -0.29297 
91 1 30.0324 13.0748 -1.52134 0.641827 
92 1 36.2603 13.7132 1.47525 0 
93 1 38.576 11.3379 0.628701 0 
94 1 42.7291 11.1306 1.71449 1.15584 
95 1 44.9732 11.3674 0.655097 -0.254813 
96 1 47.9472 13.8923 0.63189 0.731471 
97 1 49.2897 13.0642 -1.42564 -0.731471 
98 1 54.5945 12.9464 0.988313 0.910612 
99 1 55.7723 13.8748 -1.30122 -0.910612 
100 1 58.5122 14.3397 -1.28797 14.2284 
101 1 0.0869545 16.0629 0.082702 -0.026871 
102 1 4.22052 14.1107 1.27215 2.27316 
103 1 5.67631 15.3021 -0.706767 -0.29057 
104 1 7.95869 16.9729 -1.64159 0.601334 
105 1 12.9719 14.792 0.35922 0.107779 
106 1 14.178 16.4796 -1.66845 -0.0823461 
107 1 17.9689 14.5713 -2.19659 -0.73471 
108 1 21.4347 17.4559 -0.701256 0 
109 1 25.2701 16.5135 -0.0246174 0.044704 
110 1 27.6618 17.0156 -0.783872 0.0686106 
111 1 30.7461 14.3551 -0.945697 -0.641827 
112 1 35.3546 16.4889 0.569533 0 
113 1 38.66 16.5408 0.69157 -0.181775 
114 1 41.6219 17.1454 0.798828 3.0819 
115 1 43.9951 17.2416 -0.253639 0.0747038 
116 1 45.7707 16.2066 -1.6933 -0.130302 
117 1 51.3877 15.5738 0.791236 0 
118 1 55.0784 16.3386 1.31972 0 
119 1 58.2809 15.2618 1.07679 -14.2284 
120 1 60.8476 16.8933 1.7058 -0.167819 
121 1 61.9627 18.0688 -1.35282 -0.561505 
122 1 1.92922 20.4374 -1.24356 -0.0887036 
123 1 7.42744 17.9454 1.33021 0.154601 
124 1 8.96132 18.5535 -0.639401 -0.755934 
125 1 13.6752 20.4112 -0.685208 0.30889 
126 1 14.9726 19.2147 0.872441 -0.30889 
127 1 18.6235 19.5514 -0.350118 0 
128 1 21.3624 20.2194 -0.890527 2.95727 
129 1 25.8772 20.4922 0.507961 -0.1701 
130 1 28.6778 18.6776 0.198975 -0.113315 
131 1 32.0054 18.872 0.382604 0 
132 1 36.4006 20.335 0.71563 0.264207 
133 1 38.1751 18.1294 0.248833 0.181775 
134 1 41.4842 18.1403 0.0947387 -3.0263 
135 1 45.3747 19.8099 0.919785 -11.8445 
136 1 45.9879 19.0065 -1.2633 11.8445 
137 1 49.7984 17.5934 -0.798057 0 
138 1 54.1384 18.7203 0.379723 0 
139 1 57.8602 19.7077 0.921388 -0.0821795 
140 1 59.7389 17.9833 -1.21167 0.756195 
141 1 1.22191 22.221 1.23241 0.0887036 
142 1 3.53305 23.2312 0.4188 0.568721 
143 1 7.88046 22.163 1.83828 -3.90008 
144 1 8.59681 21.3755 -1.17239 3.90008 
145 1 12.1078 23.3336 -0.103739 1.9753 
146 1 17.3623 21.7611 1.66957 0.157714 
147 1 17.774 23.3652 -1.32524 -0.230849 
148 1 20.7575 21.1 -1.26155 -2.95727 
149 1 23.9217 20.9618 -1.30548 0.1701 
150 1 27.9414 23.3071 -0.447747 -0.197711 
151 1 30.6593 22.6747 -0.963491 0 
152 1 36.3377 22.5532 1.10115 -3.3962 
153 1 36.5391 21.5485 -0.0967186 2.61728 
154 1 40.571 22.9655 -0.538628 0 
155 1 43.5962 23.6454 -0.703856 -0.201849 
156 1 48.4333 22.0931 1.00482 0.0436089 
157 1 51.3442 21.9548 0.74775 0 
158 1 54.1847 23.237 0.42596 0 
159 1 56.3884 21.2446 -0.514763 0.0821795 
160 1 58.748 22.2229 -1.33523 0 
161 1 0.801613 26.2886 0.797781 0 
162 1 4.25401 26.2305 1.12022 0.0227267 
163 1 4.95489 24.0611 -1.44619 -0.591448 
164 1 9.82679 26.833 0.847839 -1.55126 
165 1 13.2538 23.6388 0.182173 -1.90003 
166 1 15.5253 23.7345 -0.294306 -0.0021318 
167 1 19.942 25.9403 1.18649 1.54382 
168 1 21.1083 25.2124 -1.23552 -1.49064 
169 1 26.5466 24.5753 1.49134 2.19422 
170 1 27.8816 24.4271 -0.893184 -1.99651 
171 1 31.4591 25.2591 -0.163682 0 
172 1 35.9719 23.8689 1.22665 0.514714 
173 1 38.8699 25.8701 1.03723 -4.83409 
174 1 41.0984 26.0269 0.0204345 -0.125042 
175 1 42.7209 25.1865 -1.58253 -0.109164 
176 1 48.7038 23.9306 1.26399 -0.0436089 
177 1 51.193 25.191 0.596565 0 
178 1 53.3731 26.9425 -0.329651 0.145226 
179 1 55.966 26.8459 1.21108 26.8413 
180 1 60.7918 26.2607 1.12444 8.10369 
181 1 61.8342 27.4817 0.800227 -2.71879 
182 1 3.97742 30.0383 -1.27529 -1.07673 
183 1 5.6869 29.0916 1.34878 -0.186038 
184 1 8.40615 26.7925 -1.58856 1.55126 
185 1 12.9183 28.6601 0.276347 0.0416951 
186 1 16.8093 27.1278 0.997953 0 
187 1 18.4738 29.8576 -0.453626 0.334834 
188 1 22.36 27.0253 0.213773 -0.0531835 
189 1 24.0674 29.3908 -1.20979 0.119279 
190 1 28.9805 27.6206 0.521849 0.0129799 
191 1 32.2489 28.3828 0.83935 0.942137 
192 1 33.0268 27.2303 -1.97562 -0.966538 
193 1 39.5551 26.6714 1.55541 5.46847 
194 1 42.3369 27.3904 1.26926 0.306308 
195 1 44.038 27.6016 -0.310032 -0.504637 
196 1 46.0955 29.5813 -1.3517 -0.051521 
197 1 49.2786 28.0644 -1.31782 0 
198 1 55.3246 27.5754 -0.634276 -26.9773 
199 1 55.9121 30.0027 -0.913745 0.18282 
200 1 60.5672 27.2172 -2.13977 -5.38491 
201 1 62.3199 30.321 -0.92565 0 
202 1 2.90597 30.9443 -0.152313 1.26276 
203 1 6.12421 32.597 -0.200342 0 
204 1 10.4879 31.7288 1.00112 0 
205 1 13.8734 30.6371 1.21708 -0.0416951 
206 1 15.2446 33.1356 -0.518846 0.193367 
207 1 19.4669 31.2187 0.50578 0.0119896 
208 1 21.2064 31.7063 -0.988285 -0.346823 
209 1 25.2595 30.9658 -0.0597609 -0.119279 
210 1 29.3952 29.8727 0.955712 0.102244 
211 1 31.4104 30.5364 -0.231109 -0.0908227 
212 1 35.5883 30.5833 0.839505 0.194029 
213 1 37.4649 31.1726 -0.518708 -0.194029 
214 1 40.3545 31.8708 -0.755086 0 
215 1 45.8874 31.3247 1.89084 0.546656 
216 1 46.1918 32.6077 -1.50456 -0.495135 
217 1 51.0107 32.3142 0.414243 0 
218 1 53.0361 29.9031 -0.722585 0 
219 1 57.8946 30.0675 0.872416 -0.144153 
220 1 59.6679 31.5833 -0.431211 -0.0479088 
221 1 62.3345 34.0083 -0.911053 0 
222 1 3.58795 35.2897 0.422817 -0.0645231 
223 1 5.60943 36.2807 -0.159406 2.32015 
224 1 10.7069 35.5632 1.3087 0.598853 
225 1 12.3183 35.9737 -0.419463 -0.598853 
226 1 16.9074 34.1301 1.048 -0.193367 
227 1 19.1689 35.3514 0.25185 0.400644 
228 1 23.0801 34.1388 1.09734 1.05673 
229 1 24.3957 34.8407 -1.05569 -1.05673 
230 1 29.7676 35.819 1.39134 0.262649 
231 1 30.7396 34.3812 -0.967437 -0.262649 
232 1 33.1204 35.6548 -1.66464 0 
233 1 38.4447 35.2526 -1.71222 0.232591 
234 1 40.3683 35.3796 1.46822 -0.232591 
235 1 44.1773 35.6972 -0.0625926 0.281601 
236 1 46.4356 35.4217 -0.982701 0.125541 
237 1 51.142 35.5767 0.545539 0 
238 1 53.2614 33.6153 -0.497308 0 
239 1 56.4752 33.3705 -0.445832 0 
240 1 60.6944 36.0524 0.609759 -0.0213837 
241 1 0.728249 36.4454 -1.64371 2.23286 
242 1 2.02386 36.5513 1.25718 -2.09595 
243 1 6.85733 36.225 -0.0346938 -2.39254 
244 1 8.83144 37.7864 -0.664428 0 
245 1 12.6857 38.8012 0.0365884 0 
246 1 15.1865 37.3637 -0.624871 0 
247 1 19.4156 36.503 0.38531 -0.400644 
248 1 21.8202 39.4744 -0.269298 0.280832 
249 1 23.6953 39.4924 -1.64936 -0.280832 
250 1 27.9209 39.4138 -1.12969 1.36676 
251 1 30.3689 39.2786 -1.25427 -0.570182 
252 1 35.9943 36.7154 1.28774 0.234285 
253 1 36.9726 38.1827 -1.05678 -0.256473 
254 1 42.3799 39.4306 0.550068 -43.4029 
255 1 44.2955 36.9855 0.0040882 -0.207158 
256 1 47.3492 36.9546 -0.11326 -0.199984 
257 1 52.1305 39.0679 1.56903 0.0934267 
258 1 53.2499 37.269 -0.541688 -0.0646825 
259 1 56.7922 37.3248 -0.128843 0 
260 1 59.4053 38.1719 -0.672259 0.0483223 
261 1 1.08002 39.9322 1.08002 0 
262 1 3.19288 41.3353 0.030602 0 
263 1 7.19994 41.3986 0.876402 0.0379418 
264 1 9.52835 42.2705 0.0405032 -0.0379418 
265 1 13.8574 41.3091 -1.09292 1.91167 
266 1 14.9773 40.9235 1.46714 -1.91167 
267 1 20.4976 42.099 -0.492905 -49.4771 
268 1 23.5157 42.6293 1.32174 -0.0697947 
269 1 26.6618 41.894 2.19998 7.68351 
270 1 29.0594 39.6006 1.35464 0.681934 
271 1 31.1573 40.3012 -0.630767 -1.47851 
272 1 33.607 42.5078 -0.435194 -0.897894 
273 1 36.2215 40.3638 -1.72237 0.0221879 
274 1 42.8275 40.6791 1.88131 -0.00133873 
275 1 43.3464 39.4145 -0.368659 43.4042 
276 1 46.4358 41.0512 -0.998401 0 
277 1 52.3781 41.8177 1.71974 -15.5377 
278 1 53.1369 41.1545 -0.561974 15.5089 
279 1 56.6818 39.8453 -0.239247 0 
280 1 60.4911 40.2652 0.40355 -0.0269386 
281 1 62.0195 45.4521 -1.26774 -0.28337 
282 1 3.81455 44.4719 0.654932 -0.0154141 
283 1 5.86033 43.7018 -0.483151 -0.0924562 
284 1 8.05097 45.217 -1.39697 0.362948 
285 1 12.1328 45.1599 -0.488147 0.159602 
286 1 14.3015 45.366 -1.53734 -0.200104 
287 1 19.1804 45.7888 0.206689 0 
288 1 21.2185 42.7095 1.15746 49.5469 
289 1 26.2135 42.8062 0.0789334 -7.68351 
290 1 29.2113 43.2512 0.750777 0 
291 1 32.1117 44.8828 0.560692 0.399 
292 1 33.1205 43.6052 -2.48013 0.459804 
293 1 38.4841 45.4108 0.557442 0.21557 
294 1 41.2943 43.0501 0.218619 0.0945805 
295 1 42.6399 44.6186 -1.66589 -0.0945805 
296 1 48.9453 43.8086 1.50297 -0.0544269 
297 1 52.0414 45.6847 0.0635156 0.116967 
298 1 54.2118 45.0354 0.568081 -14.0818 
299 1 55.231 45.1601 -1.74015 14.2425 
300 1 60.1602 45.2439 0.124239 0.28337 
301 1 1.27057 46.4525 -0.856222 2.10417 
302 1 2.36787 45.9259 1.34309 -1.9963 
303 1 6.15575 47.5246 -0.168803 0 
304 1 8.59892 46.6498 -0.926809 -0.362948 
305 1 13.151 47.0176 0.501243 0.0405013 
306 1 15.971 48.2928 0.112361 -0.452277 
307 1 18.7335 48.2759 -0.272956 -0.229178 
308 1 21.5382 48.8993 -0.587462 0.0980128 
309 1 23.8138 46.9685 -1.4844 0 
310 1 30.0285 46.1582 1.69216 -2.71086 
311 1 30.3782 47.149 -1.36771 2.74995 
312 1 35.9572 48.2537 1.26258 -0.0271346 
313 1 39.3465 48.0443 1.56458 -0.00466371 
314 1 39.3929 46.9248 -1.90279 -0.210906 
315 1 45.3743 47.2226 1.10244 0 
316 1 48.3301 45.7187 0.904062 0.0544269 
317 1 52.3041 48.4466 1.79189 0.0480007 
318 1 52.4011 46.7505 -0.033389 -0.0449785 
319 1 57.0338 45.6976 0.0187642 -0.263398 
320 1 60.8079 48.5062 0.724643 0 
321 1 62.4921 52.3578 -0.296569 1.31908 
322 1 2.73324 51.2968 -0.431238 -0.0477345 
323 1 7.5881 50.2638 1.26593 0.0422526 
324 1 10.2019 51.1129 -1.19938 -0.0972416 
325 1 11.2243 51.9533 0.232179 -1.81458 
326 1 15.4668 49.6431 -0.283054 0.574999 
327 1 17.7606 49.7514 -1.19452 0.106456 
328 1 21.7138 50.4615 -0.432374 -0.0980128 
329 1 26.0193 49.0296 0.826184 0.277787 
330 1 26.7865 50.5116 -1.77912 -0.277787 
331 1 32.2247 51.6168 0.601966 0 
332 1 35.8347 50.0313 0.959155 0.0271346 
333 1 38.3283 51.7306 0.38609 0.0663998 
334 1 40.7892 52.0548 -0.325963 -0.0950793 
335 1 42.6531 50.2186 -1.61877 0 
336 1 45.7161 50.69 -1.71803 0 
337 1 51.9872 50.4264 1.39485 0.028224 
338 1 54.4479 49.5371 0.687165 -0.0454567 
339 1 57.4986 49.0518 0.577607 0 
340 1 60.0016 52.0532 -0.0412056 0.216461 
341 1 0.519399 52.3696 0.00268979 -2.24788 
342 1 2.48146 53.5515 -0.703866 -0.105305 
343 1 6.82137 54.4136 0.488309 -0.0681535 
344 1 9.21785 51.95 -0.0139107 1.86957 
345 1 13.5847 54.9851 0.982534 0.112487 
346 1 14.6636 53.3429 -1.19476 -0.112487 
347 1 19.1517 52.2496 0.177995 0 
348 1 21.1208 54.8737 -1.01523 -0.0326936 
349 1 25.4427 54.7121 0.302548 0.739526 
350 1 28.7204 55.3298 0.200888 7.68248 
351 1 32.6831 55.4499 1.52306 -2.33459 
352 1 35.8996 54.2249 1.11458 0 
353 1 39.4655 53.8273 1.56762 0.233507 
354 1 40.94 55.0506 -0.366532 -1.38158 
355 1 45.2293 53.9053 0.957423 0 
356 1 48.6627 53.7867 1.28203 0.264508 
357 1 50.2521 52.8406 -0.397878 -0.264508 
358 1 53.0716 54.5817 -0.68715 0 
359 1 55.4388 52.6932 -1.48218 0 
360 1 61.3829 53.305 1.33896 0.812872 
361 1 1.51409 55.4556 1.55247 0.219967 
362 1 3.38153 56.1806 0.186192 -0.167466 
363 1 6.52224 56.1634 0.25278 0.344053 
364 1 8.37265 56.4737 -1.16077 -0.2759 
365 1 12.7754 57.7322 0.274694 0.798392 
366 1 16.4002 57.0177 0.588782 0 
367 1 19.0531 56.2713 0.0805385 0.0542442 
368 1 23.2747 58.6393 1.08126 -0.565938 
369 1 26.9034 55.3496 1.74346 1.3426 
370 1 28.0117 56.0847 -0.686086 -9.76461 
371 1 31.406 55.4517 -0.679468 2.33459 
372 1 35.2154 57.0978 0.632498 1.67039 
373 1 36.5816 56.8194 -1.56789 -1.67039 
374 1 39.8856 55.9906 -1.07609 1.17675 
375 1 43.5025 57.7068 -0.769413 0 
376 1 47.3019 57.4029 -0.132265 0 
377 1 51.9978 57.0033 1.40134 0 
378 1 54.4862 58.5336 0.732502 0.0707044 
379 1 58.0219 55.3531 1.10092 0 
380 1 61.0853 57.87 1.0048 0.0193596 
381 1 62.437 61.2724 -0.920418 -0.593874 
382 1 2.84307 59.5857 -0.319206 0 
383 1 7.4973 58.8969 1.17274 0 
384 1 10.2907 59.1227 0.803912 0 
385 1 14.1824 58.4252 1.38489 -0.798392 
386 1 17.4584 59.4526 1.64706 0 
387 1 20.387 58.3727 1.41226 -0.0215506 
388 1 22.713 59.9651 0.642809 0.619236 
389 1 24.9438 60.7633 -0.341204 0.0630323 
390 1 27.0469 60.422 -1.43514 -0.116331 
391 1 32.8181 58.9358 1.53436 -0.978828 
392 1 33.509 59.7922 -1.61502 0.978828 
393 1 36.37 59.6698 -1.5744 0.0195639 
394 1 40.8057 61.1182 -0.303645 0.0389164 
395 1 43.2355 61.6703 -0.892952 1.35281 
396 1 48.2267 61.1996 -2.17318 1.80463 
397 1 50.3879 59.9729 -0.233978 -0.0814132 
398 1 54.1967 60.6941 0.472209 0.205139 
399 1 56.2392 59.8118 -0.705455 -0.164353 
400 1 61.3421 59.902 1.33622 0.253779 
