ITEM: TIMESTEP
600
ITEM: NUMBER OF ATOMS
400
ITEM: BOX BOUNDS pp pp pp
0.0000000000000000e+00 6.3245553203367592e+01
0.0000000000000000e+00 6.3245553203367592e+01
-3.1622776601683800e-01 3.1622776601683800e-01
ITEM: ATOMS id type x y vx fx 
1 1 59.0852 0.837552 -1.54559 0.0561316 
2 1 6.05893 0.336128 1.8479 -2.15652 
3 1 3.86864 60.5531 -0.820343 0 
4 1 11.4038 3.03862 0.674824 -0.00491181 
5 1 14.6716 60.3648 1.79496 10.8708 
6 1 14.561 1.56588 -0.719842 0 
7 1 16.4058 61.552 -1.58987 -0.0719214 
8 1 24.7512 63.0754 1.43066 -0.697888 
9 1 26.8642 1.97345 0.465259 -0.0275587 
10 1 27.2873 61.0852 -0.684796 -0.31379 
11 1 27.1692 58.8999 -1.57874 -0.436628 
12 1 31.0358 62.544 -0.971691 0.0399346 
13 1 34.8301 58.5016 -0.941353 1.02824 
14 1 38.4668 1.11066 0.269682 -1.56688 
15 1 40.6735 2.65862 -1.25729 0 
16 1 48.5911 63.2092 -0.279352 0 
17 1 52.502 0.0960813 1.56744 -0.0521309 
18 1 57.0351 61.3725 0.562263 -0.715105 
19 1 56.7677 2.85874 -0.450256 0.0278206 
20 1 60.6672 2.44306 -1.63975 0.0195244 
21 1 62.7911 2.70593 0.812913 -0.113417 
22 1 4.91621 0.728513 0.822537 2.15652 
23 1 9.59847 5.05756 1.38586 0.409611 
24 1 11.3554 5.0098 1.02436 -0.437395 
25 1 12.3021 0.41399 -1.3221 0 
26 1 17.536 0.302488 1.01815 0.023826 
27 1 21.6398 3.95383 2.22256 0 
28 1 19.3126 1.72221 -1.30324 -0.058734 
29 1 25.8849 3.90924 0.463623 0.0213917 
30 1 31.7365 1.30335 0.814077 -0.0397336 
31 1 34.0728 4.73838 1.44176 -0.0730822 
32 1 38.0024 4.96945 -0.627651 0.743423 
33 1 37.5598 1.88712 -1.07544 1.63227 
34 1 39.0018 5.52329 0.811137 -0.836395 
35 1 45.8843 4.32468 -0.259007 -0.0724888 
36 1 47.9744 5.91676 0.6852 -0.0368938 
37 1 50.1876 2.26547 0.74099 2.28079 
38 1 52.4766 1.96713 -0.795857 6.26097 
39 1 55.0066 7.42971 -0.469189 0.559728 
40 1 58.8913 4.06406 1.36028 -2.35288 
41 1 2.55413 3.13334 0.926084 -0.034755 
42 1 1.88526 5.1741 -0.517401 0.0295377 
43 1 10.7149 7.4077 0.81319 -1.28558 
44 1 6.85636 10.5932 -0.905622 0.0166626 
45 1 17.771 9.16572 1.721 0.765697 
46 1 12.612 8.08704 -0.983487 -0.16248 
47 1 20.0972 6.73629 1.29171 2.04548 
48 1 21.384 7.04026 -0.560883 -2.0687 
49 1 25.0182 5.3819 -1.42469 0.154615 
50 1 27.7823 4.19726 -1.79179 -0.257001 
51 1 34.021 9.40515 -0.196217 0 
52 1 32.2301 6.39352 -0.568329 -0.298617 
53 1 42.9185 6.54768 1.85545 -6.43651 
54 1 40.9548 8.15847 0.54214 -16.0681 
55 1 45.105 2.48939 0.610847 0.0724888 
56 1 51.4177 1.89794 1.4692 -8.47144 
57 1 47.7673 7.73834 1.29638 -0.371081 
58 1 52.9865 6.50447 -0.178456 0.0802504 
59 1 56.2876 4.2996 -0.177354 2.20992 
60 1 57.6487 4.26815 -1.55548 0.123465 
61 1 1.55779 7.64588 -0.225809 0.123039 
62 1 3.51928 12.347 -2.25233 -1.63301 
63 1 4.63358 6.42472 -0.779933 -1.45601 
64 1 6.22364 13.2228 0.668245 0.643125 
65 1 12.6382 11.0485 -1.05112 -0.0639882 
66 1 19.1849 12.7282 1.01517 1.66951 
67 1 19.3531 8.90288 -0.182779 -0.742477 
68 1 22.9091 9.64867 -1.18332 1.09285 
69 1 24.6105 7.07237 -0.726547 0.108553 
70 1 30.2006 7.2308 1.5487 0.123971 
71 1 31.7019 5.39191 0.966507 0.247729 
72 1 36.0518 12.1286 0.893233 0 
73 1 36.3833 6.33877 -0.0332319 0.0929723 
74 1 41.9291 8.45444 0.987153 16.1194 
75 1 43.9664 6.38452 -0.785791 6.42959 
76 1 45.9966 7.65706 -1.52607 0.363603 
77 1 48.5886 11.0654 -1.21661 0 
78 1 50.8554 9.33775 -0.223184 0 
79 1 55.9965 6.2507 -1.4582 -0.610546 
80 1 0.679076 12.6957 1.29621 0.0395919 
81 1 58.8103 17.1552 -1.63674 0.446596 
82 1 3.66522 7.35294 1.24108 1.33819 
83 1 7.83033 12.8643 0.584123 -0.659788 
84 1 9.7234 17.5763 -0.0590461 -20.3758 
85 1 9.32516 7.06888 -1.06916 1.48076 
86 1 12.4572 12.713 0.676576 0.153579 
87 1 20.0795 13.6257 0.428264 -1.66951 
88 1 24.1443 15.5352 0.717136 0 
89 1 25.5331 11.0182 -0.783448 -0.921536 
90 1 24.3383 10.111 0.881061 -0.171309 
91 1 26.1009 13.4957 -1.97065 0 
92 1 39.1564 15.461 1.14076 0.357038 
93 1 38.6483 10.1933 -0.980353 0 
94 1 42.8751 12.7703 -0.0399319 0 
95 1 45.4734 10.1532 0.0352579 0 
96 1 48.4801 13.6063 -0.428431 -0.171186 
97 1 46.5495 14.1518 -1.02998 0.171186 
98 1 56.9567 14.1634 1.36661 -0.134563 
99 1 54.0505 15.4502 0.831784 -0.150536 
100 1 56.3896 12.4913 -1.35169 0.134563 
101 1 63.0902 16.5425 -0.176409 -0.0389573 
102 1 2.51742 11.4927 -0.28837 1.56046 
103 1 3.76036 14.6341 -0.953253 -0.00729407 
104 1 8.09272 15.5476 0.653534 -0.0903268 
105 1 12.9742 14.5996 -0.2079 -0.203683 
106 1 10.7284 17.6603 -1.74506 20.3026 
107 1 14.0887 14.4902 -2.39012 0.114092 
108 1 20.5796 19.768 -0.815419 -1.28179 
109 1 25.4002 18.0157 0.160985 0.0747992 
110 1 26.7141 19.683 -0.289654 -0.0434395 
111 1 29.7435 11.8729 -0.496393 0 
112 1 35.3333 16.7418 -1.01337 0 
113 1 40.9645 16.8466 0.950092 -0.665436 
114 1 43.3949 15.5174 0.885294 0.0951044 
115 1 43.5321 19.8337 -0.395083 -0.185207 
116 1 42.4103 17.7842 -1.08375 0.541112 
117 1 52.028 15.106 -1.26139 0.150536 
118 1 57.7225 17.4019 1.64132 -0.351512 
119 1 58.3331 19.2247 -1.92377 -1.6835 
120 1 0.65668 13.9797 1.46474 0.0402593 
121 1 61.0646 17.8939 0.941116 -0.0143815 
122 1 62.7234 23.5454 -0.776603 1.03653 
123 1 5.51607 19.2781 -1.7007 0 
124 1 7.45624 17.3254 -0.707466 0.16352 
125 1 13.6185 19.6388 0.378093 0.51345 
126 1 16.7159 18.2471 0.925788 -0.257453 
127 1 16.2803 19.7444 -1.84388 -0.454197 
128 1 22.5743 21.4287 1.61707 0 
129 1 24.9379 22.4914 -1.41785 0.0632521 
130 1 28.2765 17.7285 -0.479557 0 
131 1 32.7706 18.6688 0.382604 0 
132 1 37.4019 18.5248 0.754616 0 
133 1 39.431 16.857 1.956 0.720495 
134 1 41.7458 20.7581 0.207252 0.13855 
135 1 46.501 22.8297 0.562254 -0.05434 
136 1 43.8458 17.2136 -1.65288 -1.01836 
137 1 48.8221 17.348 -0.133395 0 
138 1 55.0286 18.3173 0.482228 -8.81706 
139 1 59.6064 21.1154 0.804247 -0.0413223 
140 1 57.3282 19.8452 -0.708713 1.50468 
141 1 3.84402 22.7651 1.28023 0.245436 
142 1 0.99562 23.6028 0.682657 -1.35509 
143 1 10.1903 23.3532 1.19837 0.177842 
144 1 9.68227 20.8464 1.29923 0 
145 1 13.4182 26.3846 0.733328 0.182283 
146 1 17.9517 23.7669 -1.55813 0.774011 
147 1 14.9604 25.2185 -1.43849 -0.182283 
148 1 19.2274 20.2342 -0.359977 1.42013 
149 1 21.0344 18.1213 -1.25651 -0.138336 
150 1 28.6547 21.2415 1.23677 -0.0309129 
151 1 28.6812 23.7172 -1.09006 -0.330116 
152 1 41.2673 22.9653 2.20058 -0.193609 
153 1 36.4164 21.1999 -0.0349199 0 
154 1 39.1573 24.2772 -0.489278 0.846374 
155 1 42.8724 25.2213 0.27925 -0.0957498 
156 1 49.7601 20.481 0.582566 0 
157 1 52.6979 21.7209 0.283571 1.35251 
158 1 55.0366 25.4392 0.42596 0 
159 1 55.4324 19.2373 -0.400583 8.99545 
160 1 56.0619 22.2443 -1.34069 0 
161 1 2.33858 28.2923 0.761249 0 
162 1 6.5296 28.0036 1.1804 0.0860673 
163 1 5.98474 22.6403 0.717668 -0.682076 
164 1 11.2337 29.3303 0.696631 0 
165 1 11.0319 24.9363 -1.4307 -0.177842 
166 1 14.9593 20.611 -0.3465 0.1982 
167 1 21.433 28.0926 0.70662 0 
168 1 19.8751 24.2638 2.37376 0.0659522 
169 1 26.8504 23.7217 0.210163 0.266417 
170 1 28.3288 27.8845 -0.354444 0.196492 
171 1 31.7761 24.2956 0.844746 1.75193 
172 1 35.7762 27.2123 -0.113701 0.46425 
173 1 39.3838 25.837 0.998133 -6.00128 
174 1 39.2684 27.5067 -2.58521 -0.0186701 
175 1 40.9122 24.5241 0.641291 -0.573049 
176 1 52.0646 22.6104 2.16744 -1.34504 
177 1 52.3781 24.9597 0.579557 -0.00746956 
178 1 55.382 29.3299 1.43737 0.190593 
179 1 58.8954 24.2347 1.4807 -0.143129 
180 1 62.7428 24.6417 -1.74889 4.39684 
181 1 62.6276 25.6149 0.518042 -4.07828 
182 1 3.74064 31.6616 -1.65021 -0.0152027 
183 1 8.3454 29.1968 1.29565 -0.0860673 
184 1 5.48444 23.96 -1.44816 0.436641 
185 1 13.7866 29.3024 0.593899 0.0518114 
186 1 18.7908 24.5368 -0.763307 -0.839963 
187 1 19.2135 32.0246 0.703505 0.983801 
188 1 22.5175 24.0451 0.0125215 0 
189 1 21.988 31.5019 -1.01215 -0.252945 
190 1 30.0587 26.4634 0.818413 -0.490924 
191 1 33.1702 25.5381 0.0597443 -0.410379 
192 1 31.2188 25.2273 0.39747 -1.73204 
193 1 40.4041 25.5425 -1.14014 6.02972 
194 1 45.0179 24.5148 1.04524 -0.0204912 
195 1 45.7835 27.9236 -1.12255 0.0575063 
196 1 43.6871 31.3965 -1.12245 -0.034204 
197 1 47.9583 27.062 2.03354 -0.0219726 
198 1 53.0189 29.807 -1.11161 -0.00484561 
199 1 53.2833 32.8219 -0.0290779 33.901 
200 1 57.5658 25.6704 -1.13847 0.143129 
201 1 60.4686 27.7174 -0.92565 0 
202 1 62.3552 30.981 -2.03882 -0.0455701 
203 1 5.76564 33.5051 0.962734 0.126739 
204 1 12.4902 31.9408 1.00112 0 
205 1 15.9919 28.4226 0.899524 -0.0518114 
206 1 14.6791 35.3576 0.187786 -0.0591975 
207 1 19.1737 30.3103 0.4022 1.80634 
208 1 20.175 30.959 0.03774 -2.5299 
209 1 24.7984 29.4091 -0.296194 0 
210 1 30.3845 27.502 -0.753479 0.69632 
211 1 30.5963 29.6296 -0.339049 -0.0113925 
212 1 37.1882 28.142 0.61561 -0.366446 
213 1 36.4996 30.6259 -0.352383 0 
214 1 38.983 32.1475 0.704808 -1.25402 
215 1 49.127 32.128 1.55119 0 
216 1 43.3519 33.3381 -1.80347 0.740635 
217 1 52.5458 33.4461 -0.758635 -34.0535 
218 1 49.5868 28.8203 -2.17639 -0.0355337 
219 1 58.6791 30.2332 0.0813327 -0.0170196 
220 1 58.772 31.36 -0.45109 0.337867 
221 1 60.2925 32.1938 -1.67449 0.0818159 
222 1 5.4638 36.4264 1.19219 0.221103 
223 1 6.3167 39.233 0.486549 0.0762669 
224 1 11.6434 36.1317 0.304172 0.0987965 
225 1 13.2936 39.3909 1.20399 -1.14755 
226 1 16.9217 33.5483 -1.75462 0.0564127 
227 1 19.2623 33.8994 0.414498 -0.0637028 
228 1 24.521 32.0835 0.617856 0 
229 1 23.0279 35.7079 -0.613342 -0.0879449 
230 1 29.2805 37.4817 0.264877 -0.9774 
231 1 28.7217 34.0847 -1.00911 0 
232 1 33.5527 36.8841 1.43017 0.196461 
233 1 38.3156 33.2203 -0.770985 1.25402 
234 1 43.423 36.6904 2.2319 2.75939 
235 1 43.8743 34.6039 0.466779 1.34247 
236 1 47.4148 36.1968 1.60239 -0.0386268 
237 1 50.7234 36.7533 -0.851272 0 
238 1 51.6091 31.5374 -0.900404 0.206595 
239 1 56.3593 30.791 0.249276 -0.147109 
240 1 62.3933 37.9367 1.53905 -0.116381 
241 1 61.3327 33.4473 -0.71251 -0.449783 
242 1 3.14999 33.9333 0.3711 0.0152027 
243 1 6.9117 35.0829 0.45686 -0.262369 
244 1 7.4261 37.4825 -0.811497 -0.16174 
245 1 12.6961 40.4716 -0.487587 1.14151 
246 1 13.5187 37.1706 -1.35804 -0.0482367 
247 1 21.2818 36.9726 0.954251 0.0879449 
248 1 18.6006 42.2688 -2.34919 0 
249 1 22.4027 42.658 -0.299373 0 
250 1 26.6089 41.7282 -0.531544 0.023444 
251 1 27.747 38.2522 -2.91381 0.249976 
252 1 35.4351 37.5072 -0.714524 -0.499011 
253 1 34.2342 38.7685 -2.33763 -2.26141 
254 1 43.34 40.4645 1.42298 0.927498 
255 1 44.2681 35.875 -0.878419 -1.54991 
256 1 45.1519 35.2022 -2.02566 -0.928584 
257 1 54.4772 38.2103 1.02555 0.173988 
258 1 53.6624 36.4517 0.872131 0.0944785 
259 1 56.6013 35.9389 0.0729045 -0.221545 
260 1 58.1255 38.6879 -0.672293 -0.0600869 
261 1 3.24005 37.5773 1.08002 0 
262 1 2.95468 41.3061 0.000194306 2.36792 
263 1 9.04973 42.0633 0.959038 0.00754916 
264 1 9.52657 44.5126 0.0724124 0.909563 
265 1 12.2684 42.6945 -0.775733 0.0146685 
266 1 17.3349 39.5214 1.30989 1.06327 
267 1 18.8455 39.6957 -0.566771 -1.06327 
268 1 26.03 45.3252 0.998324 -0.762258 
269 1 28.8255 41.1904 -0.929246 -0.0614594 
270 1 27.6399 37.0514 -0.601254 0.727424 
271 1 33.7431 40.3472 1.36138 -0.761889 
272 1 32.4037 41.1894 -0.181463 8.67986 
273 1 32.9568 38.8294 -1.14674 2.60061 
274 1 45.4076 39.6242 0.949053 -0.131137 
275 1 44.8327 37.0376 0.540166 -2.29117 
276 1 44.39 41.5215 -1.08751 -0.796361 
277 1 55.1328 44.2224 1.83323 -0.201383 
278 1 54.4947 42.6468 0.885677 0.275212 
279 1 56.1854 37.4657 -0.396826 0.013166 
280 1 60.7122 39.1455 -0.603842 0.116381 
281 1 61.2208 48.3744 -0.104476 0.0426497 
282 1 5.8839 44.4583 0.785412 -1.83856 
283 1 4.91108 43.6577 0.582658 1.81618 
284 1 3.96085 46.1261 -1.99425 0.0578094 
285 1 12.5021 46.5462 0.435228 -0.0771204 
286 1 10.9455 45.0859 -1.84492 -0.870937 
287 1 19.0212 48.0785 -0.583715 0.8478 
288 1 25.336 44.2494 2.8055 -4.69393 
289 1 26.1862 43.6244 -0.433484 5.95414 
290 1 31.7462 41.9855 1.81479 -7.95462 
291 1 32.2739 47.4404 -0.0078901 0.0355893 
292 1 28.9861 43.28 -1.1714 -0.0101129 
293 1 38.7102 45.0526 1.00371 0.395595 
294 1 40.0533 43.991 -1.58336 -3.06784 
295 1 40.2662 44.9997 0.529797 1.73569 
296 1 51.4733 42.5137 0.119564 -0.798251 
297 1 52.5629 44.4327 0.681331 -0.161273 
298 1 50.7104 45.418 -1.7006 0.115585 
299 1 56.6513 47.0491 -1.07566 -3.85079 
300 1 59.8478 46.0363 1.12985 -0.0649664 
301 1 0.0758703 45.7623 -0.583431 0 
302 1 4.17891 41.4808 -0.0794752 -2.34553 
303 1 5.82534 47.4602 -0.202765 -0.0150903 
304 1 7.91506 46.247 -0.305701 -0.00398095 
305 1 12.6868 48.7434 -1.40826 0.322294 
306 1 15.5152 46.7888 -0.536087 0.0114718 
307 1 18.4238 49.0037 -0.708903 -0.569633 
308 1 19.8604 50.0429 -0.334908 0.853951 
309 1 20.845 46.0372 -1.4844 0 
310 1 33.8022 45.6198 1.88097 -0.0355893 
311 1 28.7927 46.4371 0.979996 -0.253279 
312 1 37.1574 44.9732 -2.05225 0.93656 
313 1 41.8467 49.5246 0.738183 0.443405 
314 1 37.147 49.8434 -0.698648 0 
315 1 47.5792 46.7994 1.10244 0 
316 1 49.9488 42.1226 0.997685 0.84394 
317 1 56.0542 49.9465 1.7544 -2.2418 
318 1 51.5542 51.1915 0.255011 -0.166289 
319 1 56.714 42.1587 -0.207437 -0.073829 
320 1 61.5799 50.2729 -1.00607 0.243468 
321 1 0.284173 51.8678 -0.901057 2.34604 
322 1 1.35229 52.2487 -0.832809 -0.74088 
323 1 9.86998 47.9047 0.738568 0.153499 
324 1 10.8512 49.4902 0.739431 0.0256462 
325 1 11.3269 56.3488 -0.0889288 -11.0661 
326 1 14.1014 49.6312 0.288519 -0.413259 
327 1 16.2418 49.1769 -0.795704 -0.00986722 
328 1 21.3886 52.6951 -0.180258 -0.019284 
329 1 26.9027 46.654 -1.36025 -0.19654 
330 1 23.1765 49.747 -1.80326 0 
331 1 33.403 53.671 0.567358 0 
332 1 37.8343 53.3125 -0.345912 -22.0429 
333 1 38.8383 53.2878 1.05622 23.8517 
334 1 39.831 52.6313 -0.560773 -1.83581 
335 1 39.7351 48.6117 -0.895996 0.0637212 
336 1 42.2695 50.8581 -1.79945 -0.507127 
337 1 54.8845 50.4359 1.05975 0.554547 
338 1 54.8192 47.7366 -0.651338 0.197247 
339 1 57.5809 46.5083 1.15517 3.71851 
340 1 60.8498 53.8921 0.904694 0.253483 
341 1 0.100885 50.8428 0.550425 -1.91721 
342 1 3.70744 54.0774 1.91663 1.87878 
343 1 8.61995 54.8115 1.60332 1.82587 
344 1 6.77173 51.042 -1.20769 0 
345 1 14.1318 56.0338 -0.311716 -0.0390494 
346 1 12.2195 52.7184 -1.2308 0 
347 1 20.8034 50.7179 1.73228 -1.18784 
348 1 20.4638 57.1502 0.166294 0.338311 
349 1 24.3036 56.5582 -1.34328 -0.0383483 
350 1 30.2156 57.0573 0.694535 0 
351 1 36.2724 56.613 1.52117 -0.726252 
352 1 38.074 55.5664 0.815269 -1.01892 
353 1 41.0884 56.858 0.124171 -0.0549843 
354 1 38.7757 57.3418 -1.17219 -0.0350634 
355 1 47.1442 54.1985 0.957423 0 
356 1 50.6137 52.6949 -2.12691 12.152 
357 1 49.595 52.8716 0.503463 -11.9361 
358 1 51.7844 56.4835 -0.580386 0 
359 1 53.7372 50.2329 1.22013 1.63762 
360 1 62.7501 54.0023 1.4123 -0.22755 
361 1 4.52874 53.2069 1.45347 -1.32349 
362 1 4.69352 54.6291 1.26888 -0.574321 
363 1 4.63009 56.0991 -0.872791 0.019026 
364 1 7.90334 55.6356 -0.228413 -1.20887 
365 1 13.8624 59.7304 -0.556724 -10.764 
366 1 17.9344 57.8065 1.24809 -0.00930194 
367 1 18.198 54.7716 0.914569 20.83 
368 1 25.4532 59.2257 0.463338 0.441917 
369 1 29.8891 51.9156 0.457191 0.905378 
370 1 27.7127 55.9403 0.707279 0 
371 1 30.6873 53.0807 0.667141 -0.905378 
372 1 35.5641 57.5414 0.808884 -0.347254 
373 1 36.6146 55.1186 0.752315 0.828677 
374 1 41.1412 54.5402 1.97608 -0.0390785 
375 1 41.9334 59.3656 -0.951477 -1.11662 
376 1 47.0374 58.3666 -0.132265 0 
377 1 54.7133 56.9122 1.29458 0 
378 1 52.9376 61.1771 -1.21599 -0.0181907 
379 1 57.051 53.4739 -1.83871 0 
380 1 0.256269 58.9664 1.93649 0.0970202 
381 1 61.9025 60.4453 0.289234 1.32007 
382 1 2.20282 58.5909 -0.340603 -0.189383 
383 1 9.65857 56.1751 0.893484 0.00169764 
384 1 11.9452 57.1562 0.869705 10.4864 
385 1 17.4431 55.4167 -0.013627 -20.8207 
386 1 20.7883 58.5449 1.73567 -0.338311 
387 1 22.8231 54.7392 1.03362 0.0157726 
388 1 22.4997 60.7687 -1.04572 0.267209 
389 1 23.5127 62.1848 0.0477041 0.585614 
390 1 26.7215 62.5575 1.56442 0.153566 
391 1 32.0849 58.9019 -0.988738 -21.008 
392 1 31.0401 60.3656 -1.7963 0.215429 
393 1 33.092 58.8747 -1.35158 21.184 
394 1 40.3714 63.1335 -0.175962 -0.0653916 
395 1 41.2831 60.4512 -0.857345 1.21738 
396 1 44.1127 59.3269 -2.06797 -0.10076 
397 1 49.8974 59.9042 -0.24618 0 
398 1 55.4851 61.7812 1.03489 0.752514 
399 1 57.5623 59.3769 1.2219 -0.0374091 
400 1 -0.00175403 61.0179 -0.278604 -1.22771 
