ITEM: TIMESTEP
0
ITEM: NUMBER OF ATOMS
400
ITEM: BOX BOUNDS pp pp pp
0.0000000000000000e+00 6.3245553203367592e+01
0.0000000000000000e+00 6.3245553203367592e+01
-3.1622776601683800e-01 3.1622776601683800e-01
ITEM: ATOMS id type x y vx fx 
1 1 0 0 -1.10121 0 
2 1 3.16228 0 0.0790682 0 
3 1 6.32456 0 -0.817312 0 
4 1 9.48683 0 0.591749 0 
5 1 12.6491 0 0.677752 0 
6 1 15.8114 0 0.94151 0 
7 1 18.9737 0 1.59989 0 
8 1 22.1359 0 -1.60379 0 
9 1 25.2982 0 1.17797 0 
10 1 28.4605 0 -1.14179 0 
11 1 31.6228 0 -1.46764 0 
12 1 34.7851 0 -1.28252 0 
13 1 37.9473 0 -1.00935 0 
14 1 41.1096 0 -0.81553 0 
15 1 44.2719 0 -1.10264 0 
16 1 47.4342 0 0.616699 0 
17 1 50.5964 0 -1.56981 0 
18 1 53.7587 0 1.12681 0 
19 1 56.921 0 0.234993 0 
20 1 60.0833 0 0.115604 0 
21 1 0 3.16228 1.43596 0 
22 1 3.16228 3.16228 -0.494231 0 
23 1 6.32456 3.16228 1.01981 0 
24 1 9.48683 3.16228 0.543051 0 
25 1 12.6491 3.16228 0.884531 0 
26 1 15.8114 3.16228 0.644549 0 
27 1 18.9737 3.16228 -1.67974 0 
28 1 22.1359 3.16228 -0.583134 0 
29 1 25.2982 3.16228 0.327013 0 
30 1 28.4605 3.16228 1.12476 0 
31 1 31.6228 3.16228 0.610976 0 
32 1 34.7851 3.16228 1.20361 0 
33 1 37.9473 3.16228 -0.267698 0 
34 1 41.1096 3.16228 -0.765991 0 
35 1 44.2719 3.16228 0.910872 0 
36 1 47.4342 3.16228 -0.155636 0 
37 1 50.5964 3.16228 -0.478205 0 
38 1 53.7587 3.16228 -0.399 0 
39 1 56.921 3.16228 -1.01371 0 
40 1 60.0833 3.16228 -0.410898 0 
41 1 0 6.32456 0.771283 0 
42 1 3.16228 6.32456 -0.335604 0 
43 1 6.32456 6.32456 1.5718 0 
44 1 9.48683 6.32456 -0.790908 0 
45 1 12.6491 6.32456 1.61572 0 
46 1 15.8114 6.32456 -0.979851 0 
47 1 18.9737 6.32456 -0.485249 0 
48 1 22.1359 6.32456 -0.442345 0 
49 1 25.2982 6.32456 0.919475 0 
50 1 28.4605 6.32456 0.780367 0 
51 1 31.6228 6.32456 1.48246 0 
52 1 34.7851 6.32456 -1.40541 0 
53 1 37.9473 6.32456 1.62803 0 
54 1 41.1096 6.32456 -0.366505 0 
55 1 44.2719 6.32456 0.15114 0 
56 1 47.4342 6.32456 1.42711 0 
57 1 50.5964 6.32456 -0.858002 0 
58 1 53.7587 6.32456 -0.277324 0 
59 1 56.921 6.32456 0.221116 0 
60 1 60.0833 6.32456 -0.840461 0 
61 1 0 9.48683 0.748136 0 
62 1 3.16228 9.48683 0.879515 0 
63 1 6.32456 9.48683 -0.552277 0 
64 1 9.48683 9.48683 -1.59385 0 
65 1 12.6491 9.48683 0.507598 0 
66 1 15.8114 9.48683 1.6559 0 
67 1 18.9737 9.48683 0.42506 0 
68 1 22.1359 9.48683 0.481793 0 
69 1 25.2982 9.48683 0.780313 0 
70 1 28.4605 9.48683 -1.29368 0 
71 1 31.6228 9.48683 -0.422459 0 
72 1 34.7851 9.48683 0.650723 0 
73 1 37.9473 9.48683 -1.30983 0 
74 1 41.1096 9.48683 0.18504 0 
75 1 44.2719 9.48683 -0.685936 0 
76 1 47.4342 9.48683 -0.940149 0 
77 1 50.5964 9.48683 -0.565573 0 
78 1 53.7587 9.48683 -1.39432 0 
79 1 56.921 9.48683 -0.139971 0 
80 1 60.0833 9.48683 1.27955 0 
81 1 0 12.6491 -1.53599 0 
82 1 3.16228 12.6491 -0.241733 0 
83 1 6.32456 12.6491 -0.884693 0 
84 1 9.48683 12.6491 0.1111 0 
85 1 12.6491 12.6491 -1.27913 0 
86 1 15.8114 12.6491 -1.73177 0 
87 1 18.9737 12.6491 -0.278079 0 
88 1 22.1359 12.6491 0.556327 0 
89 1 25.2982 12.6491 0.0922644 0 
90 1 28.4605 12.6491 -1.49895 0 
91 1 31.6228 12.6491 -1.59985 0 
92 1 34.7851 12.6491 1.47525 0 
93 1 37.9473 12.6491 0.628701 0 
94 1 41.1096 12.6491 1.61049 0 
95 1 44.2719 12.6491 0.710144 0 
96 1 47.4342 12.6491 0.488127 0 
97 1 50.5964 12.6491 -1.28188 0 
98 1 53.7587 12.6491 0.803576 0 
99 1 56.921 12.6491 -1.11648 0 
100 1 60.0833 12.6491 -1.55751 0 
101 1 0 15.8114 0.0874274 0 
102 1 3.16228 15.8114 1.03075 0 
103 1 6.32456 15.8114 -0.633891 0 
104 1 9.48683 15.8114 -1.51672 0 
105 1 12.6491 15.8114 0.309929 0 
106 1 15.8114 15.8114 -1.62055 0 
107 1 18.9737 15.8114 -0.94329 0 
108 1 22.1359 15.8114 -0.701256 0 
109 1 25.2982 15.8114 -0.0282451 0 
110 1 28.4605 15.8114 -0.802006 0 
111 1 31.6228 15.8114 -0.867192 0 
112 1 34.7851 15.8114 0.569533 0 
113 1 37.9473 15.8114 0.715801 0 
114 1 41.1096 15.8114 0.506184 0 
115 1 44.2719 15.8114 -0.283191 0 
116 1 47.4342 15.8114 -1.65647 0 
117 1 50.5964 15.8114 0.791236 0 
118 1 53.7587 15.8114 1.31972 0 
119 1 56.921 15.8114 1.34633 0 
120 1 60.0833 15.8114 0.504962 0 
121 1 0 18.9737 -1.27252 0 
122 1 3.16228 18.9737 -1.23197 0 
123 1 6.32456 18.9737 1.06916 0 
124 1 9.48683 18.9737 -0.503212 0 
125 1 12.6491 18.9737 1.63916 0 
126 1 15.8114 18.9737 -1.45193 0 
127 1 18.9737 18.9737 -0.350118 0 
128 1 22.1359 18.9737 -0.749082 0 
129 1 25.2982 18.9737 0.601584 0 
130 1 28.4605 18.9737 0.220737 0 
131 1 31.6228 18.9737 0.382604 0 
132 1 34.7851 18.9737 1.68392 0 
133 1 37.9473 18.9737 0.224602 0 
134 1 41.1096 18.9737 0.380099 0 
135 1 44.2719 18.9737 1.01942 0 
136 1 47.4342 18.9737 -1.36293 0 
137 1 50.5964 18.9737 -0.798057 0 
138 1 53.7587 18.9737 0.379723 0 
139 1 56.921 18.9737 0.943303 0 
140 1 60.0833 18.9737 -0.0958611 0 
141 1 0 22.1359 1.22082 0 
142 1 3.16228 22.1359 0.366264 0 
143 1 6.32456 22.1359 1.47273 0 
144 1 9.48683 22.1359 -0.806843 0 
145 1 12.6491 22.1359 -0.618001 0 
146 1 15.8114 22.1359 1.50347 0 
147 1 18.9737 22.1359 -1.15177 0 
148 1 22.1359 22.1359 -1.40299 0 
149 1 25.2982 22.1359 -1.39911 0 
150 1 28.4605 22.1359 -0.52301 0 
151 1 31.6228 22.1359 -0.963491 0 
152 1 34.7851 22.1359 1.52465 0 
153 1 37.9473 22.1359 -1.44422 0 
154 1 41.1096 22.1359 -0.538628 0 
155 1 44.2719 22.1359 -0.670904 0 
156 1 47.4342 22.1359 0.998234 0 
157 1 50.5964 22.1359 0.74775 0 
158 1 53.7587 22.1359 0.42596 0 
159 1 56.921 22.1359 -0.536678 0 
160 1 60.0833 22.1359 -1.33523 0 
161 1 0 25.2982 0.804028 0 
162 1 3.16228 25.2982 1.07584 0 
163 1 6.32456 25.2982 -1.34926 0 
164 1 9.48683 25.2982 0.215101 0 
165 1 12.6491 25.2982 0.678945 0 
166 1 15.8114 25.2982 -0.28419 0 
167 1 18.9737 25.2982 0.928323 0 
168 1 22.1359 25.2982 -0.989582 0 
169 1 25.2982 25.2982 1.21093 0 
170 1 28.4605 25.2982 -0.537505 0 
171 1 31.6228 25.2982 -0.163682 0 
172 1 34.7851 25.2982 1.18237 0 
173 1 37.9473 25.2982 0.890978 0 
174 1 41.1096 25.2982 -0.0249621 0 
175 1 44.2719 25.2982 -1.54244 0 
176 1 47.4342 25.2982 1.27058 0 
177 1 50.5964 25.2982 0.596565 0 
178 1 53.7587 25.2982 -0.403803 0 
179 1 56.921 25.2982 -0.992969 0 
180 1 60.0833 25.2982 0.688941 0 
181 1 0 28.4605 -1.68917 0 
182 1 3.16228 28.4605 1.70892 0 
183 1 6.32456 28.4605 -1.51961 0 
184 1 9.48683 28.4605 -0.955826 0 
185 1 12.6491 28.4605 0.267948 0 
186 1 15.8114 28.4605 0.997953 0 
187 1 18.9737 28.4605 -0.507619 0 
188 1 22.1359 28.4605 0.226002 0 
189 1 25.2982 28.4605 -1.23507 0 
190 1 28.4605 28.4605 0.519799 0 
191 1 31.6228 28.4605 0.574619 0 
192 1 34.7851 28.4605 -1.70621 0 
193 1 37.9473 28.4605 1.63284 0 
194 1 41.1096 28.4605 1.21952 0 
195 1 44.2719 28.4605 -0.219119 0 
196 1 47.4342 28.4605 -1.33661 0 
197 1 50.5964 28.4605 -1.31782 0 
198 1 53.7587 28.4605 1.60663 0 
199 1 56.921 28.4605 -1.03482 0 
200 1 60.0833 28.4605 0.778872 0 
201 1 0 31.6228 -0.92565 0 
202 1 3.16228 31.6228 -0.268136 0 
203 1 6.32456 31.6228 -0.200342 0 
204 1 9.48683 31.6228 1.00112 0 
205 1 12.6491 31.6228 1.22547 0 
206 1 15.8114 31.6228 -0.578796 0 
207 1 18.9737 31.6228 0.48885 0 
208 1 22.1359 31.6228 -0.917362 0 
209 1 25.2982 31.6228 -0.0344796 0 
210 1 28.4605 31.6228 0.930642 0 
211 1 31.6228 31.6228 -0.20867 0 
212 1 34.7851 31.6228 0.795701 0 
213 1 37.9473 31.6228 -0.474905 0 
214 1 41.1096 31.6228 -0.755086 0 
215 1 44.2719 31.6228 1.53199 0 
216 1 47.4342 31.6228 -1.16081 0 
217 1 50.5964 31.6228 0.414243 0 
218 1 53.7587 31.6228 -0.722585 0 
219 1 56.921 31.6228 1.01087 0 
220 1 60.0833 31.6228 -0.411287 0 
221 1 0 34.7851 -0.911053 0 
222 1 3.16228 34.7851 0.426745 0 
223 1 6.32456 34.7851 -0.829279 0 
224 1 9.48683 34.7851 1.20281 0 
225 1 12.6491 34.7851 -0.313567 0 
226 1 15.8114 34.7851 1.10795 0 
227 1 18.9737 34.7851 0.188577 0 
228 1 22.1359 34.7851 0.914706 0 
229 1 25.2982 34.7851 -0.873052 0 
230 1 28.4605 34.7851 1.28078 0 
231 1 31.6228 34.7851 -0.856875 0 
232 1 34.7851 34.7851 -1.66464 0 
233 1 37.9473 34.7851 1.45573 0 
234 1 41.1096 34.7851 -1.69974 0 
235 1 44.2719 34.7851 -0.0983932 0 
236 1 47.4342 34.7851 -1.00185 0 
237 1 50.5964 34.7851 0.545539 0 
238 1 53.7587 34.7851 -0.497308 0 
239 1 56.921 34.7851 -0.445832 0 
240 1 60.0833 34.7851 0.611212 0 
241 1 0 37.9473 1.01907 0 
242 1 3.16228 37.9473 -1.43523 0 
243 1 6.32456 37.9473 0.649813 0 
244 1 9.48683 37.9473 -0.65336 0 
245 1 12.6491 37.9473 0.0365884 0 
246 1 15.8114 37.9473 -0.624871 0 
247 1 18.9737 37.9473 0.448583 0 
248 1 22.1359 37.9473 -0.324829 0 
249 1 25.2982 37.9473 -1.59383 0 
250 1 28.4605 37.9473 -0.531415 0 
251 1 31.6228 37.9473 -1.25967 0 
252 1 34.7851 37.9473 1.18402 0 
253 1 37.9473 37.9473 -0.949149 0 
254 1 41.1096 37.9473 1.23895 0 
255 1 44.2719 37.9473 0.0258156 0 
256 1 47.4342 37.9473 -0.0800405 0 
257 1 50.5964 37.9473 1.521 0 
258 1 53.7587 37.9473 -0.495843 0 
259 1 56.921 37.9473 -0.128843 0 
260 1 60.0833 37.9473 -0.67857 0 
261 1 0 41.1096 1.08002 0 
262 1 3.16228 41.1096 0.030602 0 
263 1 6.32456 41.1096 0.875375 0 
264 1 9.48683 41.1096 0.0415301 0 
265 1 12.6491 41.1096 1.36996 0 
266 1 15.8114 41.1096 -0.995738 0 
267 1 18.9737 41.1096 1.54212 0 
268 1 22.1359 41.1096 1.40574 0 
269 1 25.2982 41.1096 1.3462 0 
270 1 28.4605 41.1096 0.575152 0 
271 1 31.6228 41.1096 -0.444152 0 
272 1 34.7851 41.1096 -1.24817 0 
273 1 37.9473 41.1096 -1.72628 0 
274 1 41.1096 41.1096 1.66246 0 
275 1 44.2719 41.1096 -0.838695 0 
276 1 47.4342 41.1096 -0.998401 0 
277 1 50.5964 41.1096 1.7015 0 
278 1 53.7587 41.1096 -0.541548 0 
279 1 56.921 41.1096 -0.239247 0 
280 1 60.0833 41.1096 0.408408 0 
281 1 0 44.2719 -1.22049 0 
282 1 3.16228 44.2719 0.652382 0 
283 1 6.32456 44.2719 -0.460757 0 
284 1 9.48683 44.2719 -1.44124 0 
285 1 12.6491 44.2719 -0.520982 0 
286 1 15.8114 44.2719 -1.50626 0 
287 1 18.9737 44.2719 0.206689 0 
288 1 22.1359 44.2719 -0.961564 0 
289 1 25.2982 44.2719 0.93271 0 
290 1 28.4605 44.2719 0.750777 0 
291 1 31.6228 44.2719 0.46778 0 
292 1 34.7851 44.2719 -1.57325 0 
293 1 37.9473 44.2719 0.534687 0 
294 1 41.1096 44.2719 0.173499 0 
295 1 44.2719 44.2719 -1.62077 0 
296 1 47.4342 44.2719 1.5125 0 
297 1 50.5964 44.2719 1.51672 0 
298 1 53.7587 44.2719 0.386347 0 
299 1 56.921 44.2719 -1.64269 0 
300 1 60.0833 44.2719 0.0675717 0 
301 1 0 47.4342 1.4503 0 
302 1 3.16228 47.4342 -0.973865 0 
303 1 6.32456 47.4342 -0.168803 0 
304 1 9.48683 47.4342 -0.882538 0 
305 1 12.6491 47.4342 0.503003 0 
306 1 15.8114 47.4342 0.166031 0 
307 1 18.9737 47.4342 -0.234404 0 
308 1 22.1359 47.4342 -0.599107 0 
309 1 25.2982 47.4342 -1.4844 0 
310 1 28.4605 47.4342 1.46629 0 
311 1 31.6228 47.4342 -1.14283 0 
312 1 34.7851 47.4342 1.13721 0 
313 1 37.9473 47.4342 1.28322 0 
314 1 41.1096 47.4342 -1.59867 0 
315 1 44.2719 47.4342 1.10244 0 
316 1 47.4342 47.4342 0.894539 0 
317 1 50.5964 47.4342 1.65762 0 
318 1 53.7587 47.4342 -1.38535 0 
319 1 56.921 47.4342 0.138802 0 
320 1 60.0833 47.4342 0.724643 0 
321 1 0 50.5964 -0.853265 0 
322 1 3.16228 50.5964 -0.428885 0 
323 1 6.32456 50.5964 1.26346 0 
324 1 9.48683 50.5964 0.972426 0 
325 1 12.6491 50.5964 -1.64267 0 
326 1 15.8114 50.5964 -0.352464 0 
327 1 18.9737 50.5964 -1.21733 0 
328 1 22.1359 50.5964 -0.420728 0 
329 1 25.2982 50.5964 0.686534 0 
330 1 28.4605 50.5964 -1.63947 0 
331 1 31.6228 50.5964 0.601966 0 
332 1 34.7851 50.5964 1.08452 0 
333 1 37.9473 50.5964 0.380421 0 
334 1 41.1096 50.5964 -0.320115 0 
335 1 44.2719 50.5964 -1.61877 0 
336 1 47.4342 50.5964 -1.71803 0 
337 1 50.5964 50.5964 1.39005 0 
338 1 53.7587 50.5964 0.689232 0 
339 1 56.921 50.5964 0.577607 0 
340 1 60.0833 50.5964 -0.0901537 0 
341 1 0 53.7587 0.621728 0 
342 1 3.16228 53.7587 -0.675928 0 
343 1 6.32456 53.7587 0.498142 0 
344 1 9.48683 53.7587 -0.308408 0 
345 1 12.6491 53.7587 0.918511 0 
346 1 15.8114 53.7587 -1.13074 0 
347 1 18.9737 53.7587 0.177995 0 
348 1 22.1359 53.7587 -1.01515 0 
349 1 25.2982 53.7587 0.112289 0 
350 1 28.4605 53.7587 0.294283 0 
351 1 31.6228 53.7587 1.01023 0 
352 1 34.7851 53.7587 1.11458 0 
353 1 37.9473 53.7587 1.50576 0 
354 1 41.1096 53.7587 -0.13468 0 
355 1 44.2719 53.7587 0.957423 0 
356 1 47.4342 53.7587 1.21589 0 
357 1 50.5964 53.7587 -0.331745 0 
358 1 53.7587 53.7587 -0.68715 0 
359 1 56.921 53.7587 -1.48218 0 
360 1 60.0833 53.7587 1.301 0 
361 1 0 56.921 1.50669 0 
362 1 3.16228 56.921 0.226249 0 
363 1 6.32456 56.921 0.187066 0 
364 1 9.48683 56.921 -1.10489 0 
365 1 12.6491 56.921 0.0975101 0 
366 1 15.8114 56.921 0.588782 0 
367 1 18.9737 56.921 0.0793734 0 
368 1 22.1359 56.921 1.14624 0 
369 1 25.2982 56.921 1.58526 0 
370 1 28.4605 56.921 -0.431022 0 
371 1 31.6228 56.921 -0.166635 0 
372 1 34.7851 56.921 0.396775 0 
373 1 37.9473 56.921 -1.33217 0 
374 1 41.1096 56.921 -1.24626 0 
375 1 44.2719 56.921 -0.769413 0 
376 1 47.4342 56.921 -0.132265 0 
377 1 50.5964 56.921 1.40134 0 
378 1 53.7587 56.921 0.727342 0 
379 1 56.921 56.921 1.10092 0 
380 1 60.0833 56.921 1.00158 0 
381 1 0 60.0833 -0.780878 0 
382 1 3.16228 60.0833 -0.319206 0 
383 1 6.32456 60.0833 1.17274 0 
384 1 9.48683 60.0833 0.803912 0 
385 1 12.6491 60.0833 1.56207 0 
386 1 15.8114 60.0833 1.64706 0 
387 1 18.9737 60.0833 1.41334 0 
388 1 22.1359 60.0833 0.568667 0 
389 1 25.2982 60.0833 -0.357292 0 
390 1 28.4605 60.0833 -1.40989 0 
391 1 31.6228 60.0833 1.11325 0 
392 1 34.7851 60.0833 -1.19391 0 
393 1 37.9473 60.0833 -1.57774 0 
394 1 41.1096 60.0833 -0.303934 0 
395 1 44.2719 60.0833 -1.03954 0 
396 1 47.4342 60.0833 1.12838 0 
397 1 50.5964 60.0833 -0.202869 0 
398 1 53.7587 60.0833 0.432085 0 
399 1 56.921 60.0833 -0.678394 0 
400 1 60.0833 60.0833 1.23557 0 
