ITEM: TIMESTEP
100
ITEM: NUMBER OF ATOMS
400
ITEM: BOX BOUNDS pp pp pp
0.0000000000000000e+00 6.3245553203367592e+01
0.0000000000000000e+00 6.3245553203367592e+01
-3.1622776601683800e-01 3.1622776601683800e-01
ITEM: ATOMS id type x y vx fx 
1 1 62.695 62.9685 -1.10085 0.00472935 
2 1 3.20168 0.560135 0.0771389 -0.0227001 
3 1 5.9159 62.7944 -0.817312 0 
4 1 9.78271 0.842035 0.591748 -0.000382092 
5 1 12.988 62.7763 0.677752 0 
6 1 16.2821 0.818503 0.940811 -0.0081443 
7 1 19.7795 63.0425 1.67676 0.957932 
8 1 21.3281 63.0867 -1.68066 -0.957932 
9 1 25.8887 0.267641 1.19622 0.166565 
10 1 27.8881 63.2104 -1.16005 -0.166565 
11 1 30.889 62.5067 -1.46764 0 
12 1 34.1438 63.2429 -1.28252 0 
13 1 37.4427 62.5536 -1.00935 0 
14 1 40.7018 0.728228 -0.815468 0.000804812 
15 1 43.7206 62.9558 -1.10246 0.00215477 
16 1 47.743 0.201002 0.624363 0.0637804 
17 1 49.811 62.4531 -1.57769 -0.0939476 
18 1 54.3221 62.8373 1.12671 -0.00583796 
19 1 57.0385 0.708188 0.234993 0 
20 1 60.141 0.734478 0.114822 -0.00955673 
21 1 0.71863 2.7339 1.44566 0.0937691 
22 1 2.91464 2.57552 -0.502005 -0.0710691 
23 1 6.83446 3.45408 1.01981 0 
24 1 9.75836 3.34005 0.543052 0.000382092 
25 1 13.0914 2.67548 0.884531 0 
26 1 16.1352 2.94343 0.663349 0.172286 
27 1 18.1323 2.60435 -1.69784 -0.164142 
28 1 21.8444 3.65782 -0.58252 0.00759447 
29 1 25.4617 3.13418 0.327013 0 
30 1 29.0229 2.73828 1.12476 0 
31 1 31.9283 3.53419 0.610976 0 
32 1 35.3869 3.35733 1.20519 0.0452443 
33 1 37.8135 3.06161 -0.269277 -0.0452443 
34 1 40.7266 3.00718 -0.766054 -0.000804812 
35 1 44.7273 3.37223 0.910358 -0.00857987 
36 1 47.3565 3.52613 -0.153384 0.025124 
37 1 50.3573 2.78743 -0.478205 0 
38 1 53.5592 2.96156 -0.399 0 
39 1 56.4143 3.79963 -1.01136 0.0257264 
40 1 59.8779 2.96635 -0.410116 0.00955673 
41 1 0.385641 5.74633 0.771283 0 
42 1 2.99448 6.19046 -0.335604 0 
43 1 7.11153 6.24744 1.58468 0.100382 
44 1 9.09031 7.09872 -0.803785 -0.100382 
45 1 13.459 6.3915 1.63837 0.193632 
46 1 15.3195 7.02482 -1.0025 -0.193632 
47 1 18.7311 7.0923 -0.484272 0.012827 
48 1 21.9147 5.61255 -0.442959 -0.00759447 
49 1 25.758 6.41995 0.919475 0 
50 1 28.8507 6.23566 0.780367 0 
51 1 32.3653 7.12023 1.4925 0.0193235 
52 1 34.0799 6.22615 -1.43166 -0.202441 
53 1 38.762 6.40402 1.63794 0.0921496 
54 1 40.9257 6.81561 -0.376415 -0.0921496 
55 1 44.3475 5.72796 0.151654 0.00857987 
56 1 48.1479 5.67062 1.42949 0.0168371 
57 1 50.1672 6.98859 -0.862314 -0.0376603 
58 1 53.6201 6.35542 -0.277324 0 
59 1 57.0314 5.92007 0.218773 -0.0257264 
60 1 59.663 6.13697 -0.840461 0 
61 1 0.374068 9.19518 0.748136 0 
62 1 3.60165 9.94236 0.874218 -0.0621264 
63 1 6.04842 8.9721 -0.552277 0 
64 1 8.68991 10.0519 -1.59385 0 
65 1 12.9024 9.97159 0.500343 -0.0750922 
66 1 16.6393 9.34464 1.6559 0 
67 1 19.1861 9.36767 0.424083 -0.012827 
68 1 22.3769 10.3279 0.482063 0.00325032 
69 1 25.6893 8.94463 0.792752 0.116327 
70 1 27.8128 8.74104 -1.30612 -0.116327 
71 1 31.4128 8.66543 -0.406241 0.183118 
72 1 35.1111 9.44006 0.660638 0.0958815 
73 1 37.2917 9.20257 -1.31975 -0.0958815 
74 1 41.2021 9.32428 0.18504 0 
75 1 43.929 9.75509 -0.684722 0.0168885 
76 1 46.9641 9.38788 -0.940149 0 
77 1 50.3136 9.29239 -0.565894 -0.00430075 
78 1 53.0616 9.5078 -1.39432 0 
79 1 56.851 8.75108 -0.139971 0 
80 1 60.723 10.0177 1.27955 0 
81 1 62.4776 13.3439 -1.53599 0 
82 1 3.04179 11.8094 -0.236436 0.0621264 
83 1 5.88221 13.122 -0.884616 0.00230968 
84 1 9.54238 13.4603 0.1111 0 
85 1 12.0101 11.7834 -1.27188 0.0750922 
86 1 14.9455 12.6666 -1.73177 0 
87 1 18.8344 13.2358 -0.28091 -0.0340084 
88 1 22.4141 12.3377 0.556057 -0.00325032 
89 1 25.3444 12.0481 0.0949594 0.0484666 
90 1 27.7109 12.5336 -1.50165 -0.0484666 
91 1 30.8229 12.8466 -1.5989 0.0117981 
92 1 35.5227 13.1812 1.47525 0 
93 1 38.2617 11.9935 0.628701 0 
94 1 41.9149 11.8948 1.61049 0 
95 1 44.6269 12.0153 0.708931 -0.0168885 
96 1 47.6785 13.2748 0.49385 0.0652665 
97 1 49.9552 12.8526 -1.2876 -0.0652665 
98 1 54.161 12.7915 0.811582 0.078558 
99 1 56.3623 13.2682 -1.12449 -0.078558 
100 1 59.3045 13.4874 -1.55751 0 
101 1 0.0437137 15.9367 0.0874274 0 
102 1 3.67775 14.9625 1.03369 0.0491382 
103 1 6.00751 15.5668 -0.636909 -0.0514479 
104 1 8.72848 16.3754 -1.51641 0.00931438 
105 1 12.8043 15.298 0.315083 0.0549505 
106 1 15.0008 16.1492 -1.6257 -0.0549505 
107 1 18.5022 15.1771 -0.940458 0.0340084 
108 1 21.7853 16.6336 -0.701256 0 
109 1 25.2841 16.1625 -0.0282451 0 
110 1 28.0595 16.4086 -0.801863 0.00863259 
111 1 31.1891 15.0986 -0.868139 -0.0117981 
112 1 35.0698 16.1502 0.569533 0 
113 1 38.3052 16.1674 0.715537 -0.00520365 
114 1 41.3627 16.4805 0.505821 -0.00428528 
115 1 44.1303 16.5277 -0.283191 0 
116 1 46.6059 16.0077 -1.65647 0 
117 1 50.9921 15.6926 0.791236 0 
118 1 54.4186 16.075 1.31972 0 
119 1 57.5942 15.5436 1.34633 0 
120 1 60.3354 16.5551 0.499404 -0.0780423 
121 1 62.6093 18.5242 -1.27252 0 
122 1 2.54629 19.7045 -1.23197 0 
123 1 6.85925 18.4685 1.07241 0.0521005 
124 1 9.23511 18.7713 -0.506777 -0.0614149 
125 1 13.4735 19.5336 1.69905 0.687089 
126 1 15.0806 19.253 -1.51182 -0.687089 
127 1 18.7986 19.2625 -0.350118 0 
128 1 21.7613 19.56 -0.750728 -0.0188051 
129 1 25.5985 19.7205 0.595046 -0.063184 
130 1 28.5709 18.8305 0.220593 -0.00863259 
131 1 31.8141 18.9228 0.382604 0 
132 1 35.627 19.8031 1.6839 -0.00125644 
133 1 38.0596 18.5603 0.224866 0.00520365 
134 1 41.2997 18.5548 0.380461 0.00428528 
135 1 44.7832 19.4063 1.03833 0.168875 
136 1 46.7511 18.9755 -1.38184 -0.168875 
137 1 50.1974 18.2836 -0.798057 0 
138 1 53.9486 18.847 0.379723 0 
139 1 57.3926 19.3366 0.94298 -0.0126622 
140 1 60.0357 18.2732 -0.0903033 0.0780423 
141 1 0.61041 22.1795 1.22082 0 
142 1 3.34541 22.682 0.366264 0 
143 1 7.0622 22.168 1.48874 0.142639 
144 1 9.08213 21.7372 -0.822847 -0.142639 
145 1 12.3406 22.689 -0.611486 0.0755599 
146 1 16.565 21.9297 1.52377 0.157276 
147 1 18.3959 22.7694 -1.17206 -0.157276 
148 1 21.4346 21.6545 -1.40135 0.0188051 
149 1 24.5992 21.5614 -1.39257 0.063184 
150 1 28.199 22.7807 -0.523061 -0.000637557 
151 1 31.141 22.4053 -0.963491 0 
152 1 35.551 22.2839 1.56613 0.408044 
153 1 37.2216 21.7403 -1.48604 -0.411717 
154 1 40.8403 22.5507 -0.538628 0 
155 1 43.9364 22.8831 -0.671406 -0.00926245 
156 1 47.9333 22.1096 0.998234 0 
157 1 50.9703 22.0454 0.74775 0 
158 1 53.9717 22.6865 0.42596 0 
159 1 56.6527 21.6943 -0.536355 0.0126622 
160 1 59.4157 22.1794 -1.33523 0 
161 1 0.402011 25.7918 0.803689 -0.0199601 
162 1 3.70106 25.7701 1.08623 0.0740334 
163 1 5.64906 24.6755 -1.35965 -0.0740334 
164 1 9.59339 26.0635 0.200225 -0.209778 
165 1 12.9881 24.5142 0.672431 -0.0755599 
166 1 15.6693 24.5164 -0.28419 0 
167 1 19.4384 25.6257 0.936887 0.0836311 
168 1 21.6406 25.2464 -0.998146 -0.0836311 
169 1 25.904 24.9399 1.21722 0.0711726 
170 1 28.1914 24.8003 -0.543744 -0.0705351 
171 1 31.5409 25.2787 -0.163682 0 
172 1 35.3763 24.5975 1.18273 0.00492924 
173 1 38.393 25.5456 0.89303 0.0235504 
174 1 41.0972 25.6553 -0.0218818 0.0610935 
175 1 43.5006 25.2478 -1.54393 -0.0365518 
176 1 48.0695 24.6193 1.27058 0 
177 1 50.8947 25.2446 0.596565 0 
178 1 53.5572 26.1098 -0.39823 0.0533787 
179 1 56.4245 26.094 -0.992969 0 
180 1 60.4278 25.7679 0.689179 0.00283635 
181 1 62.399 27.9488 -1.71322 -0.214682 
182 1 4.02265 29.1041 1.7848 0.934845 
183 1 5.55878 28.9138 -1.59703 -0.956127 
184 1 9.00991 27.6286 -0.940951 0.209778 
185 1 12.7831 28.5585 0.267948 0 
186 1 16.3104 27.7942 0.997953 0 
187 1 18.7199 29.1489 -0.506621 0.0133751 
188 1 22.2489 27.7453 0.226002 0 
189 1 24.6807 28.9205 -1.23471 0.0108746 
190 1 28.7204 28.0398 0.519799 0 
191 1 31.9112 28.4357 0.588865 0.121312 
192 1 33.9308 27.8303 -1.72045 -0.121312 
193 1 38.7636 27.6059 1.63079 -0.0235504 
194 1 41.7194 27.933 1.22002 0.0302094 
195 1 44.1623 28.0316 -0.220702 -0.0454887 
196 1 46.7659 29.0181 -1.33661 0 
197 1 49.9375 28.2625 -1.31782 0 
198 1 54.5628 28.0008 1.61338 0.0237821 
199 1 56.4034 29.2184 -1.03546 0.0422094 
200 1 60.4747 27.8742 0.803029 0.231805 
201 1 62.7827 30.9719 -0.92565 0 
202 1 3.02827 31.2911 -0.266593 0.0212818 
203 1 6.22438 32.1099 -0.200342 0 
204 1 9.98739 31.6758 1.00112 0 
205 1 13.2618 31.1318 1.22547 0 
206 1 15.5222 32.3702 -0.576033 0.0293322 
207 1 19.2181 31.4299 0.488762 0.028789 
208 1 21.6773 31.6655 -0.918272 -0.042164 
209 1 25.281 31.2994 -0.0348447 -0.0108746 
210 1 28.9258 30.748 0.930642 0 
211 1 31.5184 31.0811 -0.20867 0 
212 1 35.1829 31.1023 0.795701 0 
213 1 37.7099 31.3985 -0.474905 0 
214 1 40.7321 31.7468 -0.755086 0 
215 1 45.04 31.4426 1.5563 0.204879 
216 1 46.8516 32.1491 -1.18511 -0.204879 
217 1 50.8036 31.9685 0.414243 0 
218 1 53.3974 30.7629 -0.722585 0 
219 1 57.4255 30.8631 0.99918 -0.11937 
220 1 59.8776 31.6041 -0.411287 0 
221 1 62.79 34.3967 -0.911053 0 
222 1 3.37559 35.0321 0.425359 -0.0201132 
223 1 5.91076 35.48 -0.81768 0.141466 
224 1 10.0883 35.1729 1.20535 0.0497021 
225 1 12.4923 35.3807 -0.316107 -0.0497021 
226 1 16.3652 34.4666 1.10519 -0.0293322 
227 1 19.068 35.0411 0.189023 0.00529007 
228 1 22.5937 34.4577 0.921122 0.0695127 
229 1 24.8613 34.8171 -0.879468 -0.0695127 
230 1 29.1016 35.3096 1.29061 0.0845684 
231 1 31.1936 34.5756 -0.866711 -0.0845684 
232 1 33.9527 35.2199 -1.66464 0 
233 1 38.6808 35.038 1.52706 0.872027 
234 1 40.2542 35.0632 -1.77107 -0.872027 
235 1 44.2227 35.2206 -0.0982274 0.00210255 
236 1 46.9333 35.0959 -1.00132 0.0097163 
237 1 50.8692 35.1809 0.545539 0 
238 1 53.5101 34.2002 -0.497308 0 
239 1 56.6981 34.0778 -0.445832 0 
240 1 60.3889 35.4187 0.611212 0 
241 1 0.511526 37.2067 1.04308 0.229997 
242 1 2.44273 37.2436 -1.45785 -0.209884 
243 1 6.64862 37.1392 0.638213 -0.141466 
244 1 9.16015 37.8674 -0.65336 0 
245 1 12.6674 38.3742 0.0365884 0 
246 1 15.499 37.6555 -0.624871 0 
247 1 19.1979 37.2523 0.448137 -0.00529007 
248 1 21.9735 38.7109 -0.324829 0 
249 1 24.5013 38.7199 -1.59383 0 
250 1 28.1953 38.6429 -0.523753 0.0966396 
251 1 30.993 38.5853 -1.25804 0.0185935 
252 1 35.3778 37.3242 1.1937 0.0827031 
253 1 37.4721 38.0715 -0.958827 -0.0827031 
254 1 41.7291 38.6633 1.23949 0.00686474 
255 1 44.2848 37.487 0.0256498 -0.00210255 
256 1 47.3941 37.4584 -0.0805685 -0.0097163 
257 1 51.3573 38.5115 1.5268 0.0574514 
258 1 53.5105 37.6042 -0.50164 -0.0574514 
259 1 56.8566 37.6361 -0.128843 0 
260 1 59.744 38.059 -0.67857 0 
261 1 0.540009 40.5209 1.08002 0 
262 1 3.17758 41.2225 0.030602 0 
263 1 6.76224 41.2541 0.875375 0 
264 1 9.5076 41.6901 0.0415301 0 
265 1 13.3357 41.1816 1.39046 0.193438 
266 1 15.3119 41.0443 -1.01624 -0.193438 
267 1 19.7447 41.6112 1.54212 0 
268 1 22.8379 41.8578 1.39482 -0.0994579 
269 1 25.9712 41.5002 1.34489 -0.0154144 
270 1 28.7475 40.3956 0.567491 -0.0966396 
271 1 31.4006 40.7302 -0.445783 -0.0185935 
272 1 34.1609 41.8916 -1.24955 -0.016973 
273 1 37.0842 40.7375 -1.72628 0 
274 1 41.9424 40.9352 1.68063 0.148126 
275 1 43.8509 40.2469 -0.857393 -0.154991 
276 1 46.935 41.0804 -0.998401 0 
277 1 51.4485 41.4767 1.7173 0.141762 
278 1 53.4867 41.1191 -0.557342 -0.141762 
279 1 56.8014 40.4774 -0.239247 0 
280 1 60.2875 40.6881 0.408408 0 
281 1 62.6354 44.86 -1.21855 0.0249923 
282 1 3.48847 44.3691 0.652285 -0.01307 
283 1 6.09418 43.9864 -0.460757 0 
284 1 8.76623 44.7322 -1.44073 0.00739595 
285 1 12.3886 44.7131 -0.520982 0 
286 1 15.0583 44.8185 -1.50626 0 
287 1 19.077 45.0303 0.206689 0 
288 1 21.6561 43.4955 -0.950649 0.0994579 
289 1 25.7647 43.5406 0.93402 0.0154144 
290 1 28.8359 43.7616 0.750777 0 
291 1 31.8572 44.5832 0.475811 0.0736066 
292 1 33.998 43.8498 -1.5799 -0.0566336 
293 1 38.2147 44.8399 0.534687 0 
294 1 41.1965 43.658 0.177053 0.0490649 
295 1 43.4614 44.4482 -1.62433 -0.0490649 
296 1 48.1904 44.0369 1.5125 0 
297 1 51.3548 45.0688 1.51672 0 
298 1 53.9527 44.6483 0.398107 0.0976527 
299 1 56.0993 44.7026 -1.6486 -0.05201 
300 1 60.1171 44.7576 0.0675717 0 
301 1 0.726918 46.9055 1.47075 0.186033 
302 1 2.6735 46.7234 -0.996158 -0.197955 
303 1 6.24015 47.4794 -0.168803 0 
304 1 9.04554 47.0542 -0.88305 -0.00739595 
305 1 12.9006 47.2291 0.503003 0 
306 1 15.8944 47.8481 0.165432 -0.00779532 
307 1 18.8564 47.8471 -0.235073 -0.0111055 
308 1 21.8364 48.1563 -0.598993 0.00202393 
309 1 24.556 47.2013 -1.4844 0 
310 1 29.1958 46.7692 1.49082 0.219282 
311 1 31.0493 47.3186 -1.16736 -0.219282 
312 1 35.3536 48.249 1.13657 -0.00988372 
313 1 38.592 47.7687 1.31777 0.319167 
314 1 40.3072 47.1514 -1.63323 -0.319167 
315 1 44.8231 47.3284 1.10244 0 
316 1 47.8814 46.5797 0.894539 0 
317 1 51.4281 47.9609 1.68659 0.215653 
318 1 53.0632 46.981 -1.41428 -0.20162 
319 1 56.9899 46.5814 0.132912 -0.0596764 
320 1 60.4456 47.9702 0.724643 0 
321 1 62.8197 51.4237 -0.842754 0.125992 
322 1 2.94784 50.9458 -0.428885 0 
323 1 6.95629 50.4301 1.26346 0 
324 1 9.97521 50.9056 0.997397 0.23629 
325 1 11.8253 51.1972 -1.6716 -0.279642 
326 1 15.6352 50.135 -0.351866 0.00779532 
327 1 18.365 50.1819 -1.21666 0.0111055 
328 1 21.9256 50.5394 -0.420842 -0.00202393 
329 1 25.6426 49.8019 0.699866 0.107499 
330 1 27.6397 50.5651 -1.6528 -0.107499 
331 1 31.9238 51.1066 0.601966 0 
332 1 35.3274 49.9088 1.08517 0.00988372 
333 1 38.1375 51.163 0.380421 0 
334 1 40.9496 51.3255 -0.320115 0 
335 1 43.4625 50.4075 -1.61877 0 
336 1 46.5752 50.6432 -1.71803 0 
337 1 51.2915 50.5149 1.39005 0 
338 1 54.1033 50.0668 0.689232 0 
339 1 57.2098 49.8241 0.577607 0 
340 1 60.0383 51.3167 -0.0886834 0.0187967 
341 1 0.310093 53.1133 0.611217 -0.125992 
342 1 2.82431 53.6564 -0.675928 0 
343 1 6.57363 54.0799 0.498099 -0.00264632 
344 1 9.33291 52.8811 -0.304448 0.0433512 
345 1 13.1088 54.3769 0.925786 0.0662581 
346 1 15.2455 53.5458 -1.13801 -0.0662581 
347 1 19.0627 53.0041 0.177995 0 
348 1 21.6284 54.3162 -1.01515 0 
349 1 25.3547 54.2138 0.117081 0.0509778 
350 1 28.6075 54.5039 0.292168 -0.0243431 
351 1 32.1271 54.5749 0.998728 -0.153788 
352 1 35.3423 53.9918 1.11458 0 
353 1 38.7003 53.7908 1.50844 0.0478992 
354 1 41.042 54.386 -0.139815 -0.0750818 
355 1 44.7506 53.832 0.957423 0 
356 1 48.0422 53.7748 1.21789 0.0458468 
357 1 50.4305 53.2975 -0.333742 -0.0458468 
358 1 53.4151 54.1702 -0.68715 0 
359 1 56.1799 53.226 -1.48218 0 
360 1 60.7337 53.5434 1.29953 -0.0187967 
361 1 0.753347 56.1878 1.50669 0 
362 1 3.2754 56.5517 0.226249 0 
363 1 6.41809 56.5479 0.18711 0.00264632 
364 1 8.93439 56.6978 -1.10489 0 
365 1 12.6982 57.3066 0.1018 0.0454655 
366 1 16.1058 56.9694 0.588782 0 
367 1 19.0134 56.5961 0.0793734 0 
368 1 22.709 57.7645 1.14554 -0.008931 
369 1 26.0912 56.149 1.59069 0.0447719 
370 1 28.2444 56.551 -0.439133 -0.0714066 
371 1 31.5403 56.2158 -0.155131 0.153788 
372 1 34.9838 57.0113 0.402905 0.0690666 
373 1 37.2809 56.8682 -1.3383 -0.0690666 
374 1 40.4866 56.4774 -1.24381 0.0271826 
375 1 43.8872 57.3139 -0.769413 0 
376 1 47.368 57.1619 -0.132265 0 
377 1 51.2971 56.9622 1.40134 0 
378 1 54.1224 57.7256 0.727342 0 
379 1 57.4715 56.137 1.10092 0 
380 1 60.5841 57.3928 1.00158 0 
381 1 62.8546 60.6682 -0.789358 -0.0801777 
382 1 3.00267 59.8345 -0.319206 0 
383 1 6.91093 59.4901 1.17274 0 
384 1 9.88879 59.603 0.803912 0 
385 1 13.4298 59.2742 1.55778 -0.0454655 
386 1 16.6349 59.7679 1.64706 0 
387 1 19.6803 59.228 1.41334 0 
388 1 22.4203 60.0397 0.569369 0.008931 
389 1 25.1196 60.4237 -0.357292 0 
390 1 27.7556 60.2524 -1.40989 0 
391 1 32.1807 59.4891 1.1297 0.144512 
392 1 34.1868 59.9581 -1.21036 -0.144512 
393 1 37.1585 59.8756 -1.57774 0 
394 1 40.9576 60.6007 -0.303934 0 
395 1 43.7521 60.8821 -1.03972 -0.00215477 
396 1 47.9984 60.7609 1.1286 0.0301672 
397 1 50.495 60.0243 -0.202869 0 
398 1 53.9748 60.3851 0.432182 0.00583796 
399 1 56.5818 59.9472 -0.678394 0 
400 1 60.7016 59.9892 1.2437 0.0754483 
