ITEM: TIMESTEP
0
ITEM: NUMBER OF ATOMS
400
ITEM: BOX BOUNDS pp pp pp
0.0000000000000000e+00 6.3245553203367592e+01
0.0000000000000000e+00 6.3245553203367592e+01
-3.1622776601683800e-01 3.1622776601683800e-01
ITEM: ATOMS id x y z 
1 0 0 0 
2 3.16228 0 0 
3 6.32456 0 0 
4 9.48683 0 0 
5 12.6491 0 0 
6 15.8114 0 0 
7 18.9737 0 0 
8 22.1359 0 0 
9 25.2982 0 0 
10 28.4605 0 0 
11 31.6228 0 0 
12 34.7851 0 0 
13 37.9473 0 0 
14 41.1096 0 0 
15 44.2719 0 0 
16 47.4342 0 0 
17 50.5964 0 0 
18 53.7587 0 0 
19 56.921 0 0 
20 60.0833 0 0 
21 0 3.16228 0 
22 3.16228 3.16228 0 
23 6.32456 3.16228 0 
24 9.48683 3.16228 0 
25 12.6491 3.16228 0 
26 15.8114 3.16228 0 
27 18.9737 3.16228 0 
28 22.1359 3.16228 0 
29 25.2982 3.16228 0 
30 28.4605 3.16228 0 
31 31.6228 3.16228 0 
32 34.7851 3.16228 0 
33 37.9473 3.16228 0 
34 41.1096 3.16228 0 
35 44.2719 3.16228 0 
36 47.4342 3.16228 0 
37 50.5964 3.16228 0 
38 53.7587 3.16228 0 
39 56.921 3.16228 0 
40 60.0833 3.16228 0 
41 0 6.32456 0 
42 3.16228 6.32456 0 
43 6.32456 6.32456 0 
44 9.48683 6.32456 0 
45 12.6491 6.32456 0 
46 15.8114 6.32456 0 
47 18.9737 6.32456 0 
48 22.1359 6.32456 0 
49 25.2982 6.32456 0 
50 28.4605 6.32456 0 
51 31.6228 6.32456 0 
52 34.7851 6.32456 0 
53 37.9473 6.32456 0 
54 41.1096 6.32456 0 
55 44.2719 6.32456 0 
56 47.4342 6.32456 0 
57 50.5964 6.32456 0 
58 53.7587 6.32456 0 
59 56.921 6.32456 0 
60 60.0833 6.32456 0 
61 0 9.48683 0 
62 3.16228 9.48683 0 
63 6.32456 9.48683 0 
64 9.48683 9.48683 0 
65 12.6491 9.48683 0 
66 15.8114 9.48683 0 
67 18.9737 9.48683 0 
68 22.1359 9.48683 0 
69 25.2982 9.48683 0 
70 28.4605 9.48683 0 
71 31.6228 9.48683 0 
72 34.7851 9.48683 0 
73 37.9473 9.48683 0 
74 41.1096 9.48683 0 
75 44.2719 9.48683 0 
76 47.4342 9.48683 0 
77 50.5964 9.48683 0 
78 53.7587 9.48683 0 
79 56.921 9.48683 0 
80 60.0833 9.48683 0 
81 0 12.6491 0 
82 3.16228 12.6491 0 
83 6.32456 12.6491 0 
84 9.48683 12.6491 0 
85 12.6491 12.6491 0 
86 15.8114 12.6491 0 
87 18.9737 12.6491 0 
88 22.1359 12.6491 0 
89 25.2982 12.6491 0 
90 28.4605 12.6491 0 
91 31.6228 12.6491 0 
92 34.7851 12.6491 0 
93 37.9473 12.6491 0 
94 41.1096 12.6491 0 
95 44.2719 12.6491 0 
96 47.4342 12.6491 0 
97 50.5964 12.6491 0 
98 53.7587 12.6491 0 
99 56.921 12.6491 0 
100 60.0833 12.6491 0 
101 0 15.8114 0 
102 3.16228 15.8114 0 
103 6.32456 15.8114 0 
104 9.48683 15.8114 0 
105 12.6491 15.8114 0 
106 15.8114 15.8114 0 
107 18.9737 15.8114 0 
108 22.1359 15.8114 0 
109 25.2982 15.8114 0 
110 28.4605 15.8114 0 
111 31.6228 15.8114 0 
112 34.7851 15.8114 0 
113 37.9473 15.8114 0 
114 41.1096 15.8114 0 
115 44.2719 15.8114 0 
116 47.4342 15.8114 0 
117 50.5964 15.8114 0 
118 53.7587 15.8114 0 
119 56.921 15.8114 0 
120 60.0833 15.8114 0 
121 0 18.9737 0 
122 3.16228 18.9737 0 
123 6.32456 18.9737 0 
124 9.48683 18.9737 0 
125 12.6491 18.9737 0 
126 15.8114 18.9737 0 
127 18.9737 18.9737 0 
128 22.1359 18.9737 0 
129 25.2982 18.9737 0 
130 28.4605 18.9737 0 
131 31.6228 18.9737 0 
132 34.7851 18.9737 0 
133 37.9473 18.9737 0 
134 41.1096 18.9737 0 
135 44.2719 18.9737 0 
136 47.4342 18.9737 0 
137 50.5964 18.9737 0 
138 53.7587 18.9737 0 
139 56.921 18.9737 0 
140 60.0833 18.9737 0 
141 0 22.1359 0 
142 3.16228 22.1359 0 
143 6.32456 22.1359 0 
144 9.48683 22.1359 0 
145 12.6491 22.1359 0 
146 15.8114 22.1359 0 
147 18.9737 22.1359 0 
148 22.1359 22.1359 0 
149 25.2982 22.1359 0 
150 28.4605 22.1359 0 
151 31.6228 22.1359 0 
152 34.7851 22.1359 0 
153 37.9473 22.1359 0 
154 41.1096 22.1359 0 
155 44.2719 22.1359 0 
156 47.4342 22.1359 0 
157 50.5964 22.1359 0 
158 53.7587 22.1359 0 
159 56.921 22.1359 0 
160 60.0833 22.1359 0 
161 0 25.2982 0 
162 3.16228 25.2982 0 
163 6.32456 25.2982 0 
164 9.48683 25.2982 0 
165 12.6491 25.2982 0 
166 15.8114 25.2982 0 
167 18.9737 25.2982 0 
168 22.1359 25.2982 0 
169 25.2982 25.2982 0 
170 28.4605 25.2982 0 
171 31.6228 25.2982 0 
172 34.7851 25.2982 0 
173 37.9473 25.2982 0 
174 41.1096 25.2982 0 
175 44.2719 25.2982 0 
176 47.4342 25.2982 0 
177 50.5964 25.2982 0 
178 53.7587 25.2982 0 
179 56.921 25.2982 0 
180 60.0833 25.2982 0 
181 0 28.4605 0 
182 3.16228 28.4605 0 
183 6.32456 28.4605 0 
184 9.48683 28.4605 0 
185 12.6491 28.4605 0 
186 15.8114 28.4605 0 
187 18.9737 28.4605 0 
188 22.1359 28.4605 0 
189 25.2982 28.4605 0 
190 28.4605 28.4605 0 
191 31.6228 28.4605 0 
192 34.7851 28.4605 0 
193 37.9473 28.4605 0 
194 41.1096 28.4605 0 
195 44.2719 28.4605 0 
196 47.4342 28.4605 0 
197 50.5964 28.4605 0 
198 53.7587 28.4605 0 
199 56.921 28.4605 0 
200 60.0833 28.4605 0 
201 0 31.6228 0 
202 3.16228 31.6228 0 
203 6.32456 31.6228 0 
204 9.48683 31.6228 0 
205 12.6491 31.6228 0 
206 15.8114 31.6228 0 
207 18.9737 31.6228 0 
208 22.1359 31.6228 0 
209 25.2982 31.6228 0 
210 28.4605 31.6228 0 
211 31.6228 31.6228 0 
212 34.7851 31.6228 0 
213 37.9473 31.6228 0 
214 41.1096 31.6228 0 
215 44.2719 31.6228 0 
216 47.4342 31.6228 0 
217 50.5964 31.6228 0 
218 53.7587 31.6228 0 
219 56.921 31.6228 0 
220 60.0833 31.6228 0 
221 0 34.7851 0 
222 3.16228 34.7851 0 
223 6.32456 34.7851 0 
224 9.48683 34.7851 0 
225 12.6491 34.7851 0 
226 15.8114 34.7851 0 
227 18.9737 34.7851 0 
228 22.1359 34.7851 0 
229 25.2982 34.7851 0 
230 28.4605 34.7851 0 
231 31.6228 34.7851 0 
232 34.7851 34.7851 0 
233 37.9473 34.7851 0 
234 41.1096 34.7851 0 
235 44.2719 34.7851 0 
236 47.4342 34.7851 0 
237 50.5964 34.7851 0 
238 53.7587 34.7851 0 
239 56.921 34.7851 0 
240 60.0833 34.7851 0 
241 0 37.9473 0 
242 3.16228 37.9473 0 
243 6.32456 37.9473 0 
244 9.48683 37.9473 0 
245 12.6491 37.9473 0 
246 15.8114 37.9473 0 
247 18.9737 37.9473 0 
248 22.1359 37.9473 0 
249 25.2982 37.9473 0 
250 28.4605 37.9473 0 
251 31.6228 37.9473 0 
252 34.7851 37.9473 0 
253 37.9473 37.9473 0 
254 41.1096 37.9473 0 
255 44.2719 37.9473 0 
256 47.4342 37.9473 0 
257 50.5964 37.9473 0 
258 53.7587 37.9473 0 
259 56.921 37.9473 0 
260 60.0833 37.9473 0 
261 0 41.1096 0 
262 3.16228 41.1096 0 
263 6.32456 41.1096 0 
264 9.48683 41.1096 0 
265 12.6491 41.1096 0 
266 15.8114 41.1096 0 
267 18.9737 41.1096 0 
268 22.1359 41.1096 0 
269 25.2982 41.1096 0 
270 28.4605 41.1096 0 
271 31.6228 41.1096 0 
272 34.7851 41.1096 0 
273 37.9473 41.1096 0 
274 41.1096 41.1096 0 
275 44.2719 41.1096 0 
276 47.4342 41.1096 0 
277 50.5964 41.1096 0 
278 53.7587 41.1096 0 
279 56.921 41.1096 0 
280 60.0833 41.1096 0 
281 0 44.2719 0 
282 3.16228 44.2719 0 
283 6.32456 44.2719 0 
284 9.48683 44.2719 0 
285 12.6491 44.2719 0 
286 15.8114 44.2719 0 
287 18.9737 44.2719 0 
288 22.1359 44.2719 0 
289 25.2982 44.2719 0 
290 28.4605 44.2719 0 
291 31.6228 44.2719 0 
292 34.7851 44.2719 0 
293 37.9473 44.2719 0 
294 41.1096 44.2719 0 
295 44.2719 44.2719 0 
296 47.4342 44.2719 0 
297 50.5964 44.2719 0 
298 53.7587 44.2719 0 
299 56.921 44.2719 0 
300 60.0833 44.2719 0 
301 0 47.4342 0 
302 3.16228 47.4342 0 
303 6.32456 47.4342 0 
304 9.48683 47.4342 0 
305 12.6491 47.4342 0 
306 15.8114 47.4342 0 
307 18.9737 47.4342 0 
308 22.1359 47.4342 0 
309 25.2982 47.4342 0 
310 28.4605 47.4342 0 
311 31.6228 47.4342 0 
312 34.7851 47.4342 0 
313 37.9473 47.4342 0 
314 41.1096 47.4342 0 
315 44.2719 47.4342 0 
316 47.4342 47.4342 0 
317 50.5964 47.4342 0 
318 53.7587 47.4342 0 
319 56.921 47.4342 0 
320 60.0833 47.4342 0 
321 0 50.5964 0 
322 3.16228 50.5964 0 
323 6.32456 50.5964 0 
324 9.48683 50.5964 0 
325 12.6491 50.5964 0 
326 15.8114 50.5964 0 
327 18.9737 50.5964 0 
328 22.1359 50.5964 0 
329 25.2982 50.5964 0 
330 28.4605 50.5964 0 
331 31.6228 50.5964 0 
332 34.7851 50.5964 0 
333 37.9473 50.5964 0 
334 41.1096 50.5964 0 
335 44.2719 50.5964 0 
336 47.4342 50.5964 0 
337 50.5964 50.5964 0 
338 53.7587 50.5964 0 
339 56.921 50.5964 0 
340 60.0833 50.5964 0 
341 0 53.7587 0 
342 3.16228 53.7587 0 
343 6.32456 53.7587 0 
344 9.48683 53.7587 0 
345 12.6491 53.7587 0 
346 15.8114 53.7587 0 
347 18.9737 53.7587 0 
348 22.1359 53.7587 0 
349 25.2982 53.7587 0 
350 28.4605 53.7587 0 
351 31.6228 53.7587 0 
352 34.7851 53.7587 0 
353 37.9473 53.7587 0 
354 41.1096 53.7587 0 
355 44.2719 53.7587 0 
356 47.4342 53.7587 0 
357 50.5964 53.7587 0 
358 53.7587 53.7587 0 
359 56.921 53.7587 0 
360 60.0833 53.7587 0 
361 0 56.921 0 
362 3.16228 56.921 0 
363 6.32456 56.921 0 
364 9.48683 56.921 0 
365 12.6491 56.921 0 
366 15.8114 56.921 0 
367 18.9737 56.921 0 
368 22.1359 56.921 0 
369 25.2982 56.921 0 
370 28.4605 56.921 0 
371 31.6228 56.921 0 
372 34.7851 56.921 0 
373 37.9473 56.921 0 
374 41.1096 56.921 0 
375 44.2719 56.921 0 
376 47.4342 56.921 0 
377 50.5964 56.921 0 
378 53.7587 56.921 0 
379 56.921 56.921 0 
380 60.0833 56.921 0 
381 0 60.0833 0 
382 3.16228 60.0833 0 
383 6.32456 60.0833 0 
384 9.48683 60.0833 0 
385 12.6491 60.0833 0 
386 15.8114 60.0833 0 
387 18.9737 60.0833 0 
388 22.1359 60.0833 0 
389 25.2982 60.0833 0 
390 28.4605 60.0833 0 
391 31.6228 60.0833 0 
392 34.7851 60.0833 0 
393 37.9473 60.0833 0 
394 41.1096 60.0833 0 
395 44.2719 60.0833 0 
396 47.4342 60.0833 0 
397 50.5964 60.0833 0 
398 53.7587 60.0833 0 
399 56.921 60.0833 0 
400 60.0833 60.0833 0 
ITEM: TIMESTEP
10
ITEM: NUMBER OF ATOMS
400
ITEM: BOX BOUNDS pp pp pp
0.0000000000000000e+00 6.3245553203367592e+01
0.0000000000000000e+00 6.3245553203367592e+01
-3.1622776601683800e-01 3.1622776601683800e-01
ITEM: ATOMS id x y z 
1 62.2871 62.7637 0 
2 3.23109 0.972596 0 
3 5.61321 62.4602 0 
4 10.0019 1.46572 0 
5 13.239 62.4288 0 
6 16.6308 1.42317 0 
7 20.3661 62.892 0 
8 20.7401 62.9691 0 
9 26.3235 0.46614 0 
10 27.4667 63.1841 0 
11 30.3454 61.9594 0 
12 33.6688 63.2409 0 
13 37.0688 62.041 0 
14 40.3998 1.26698 0 
15 43.3122 62.7433 0 
16 47.9709 0.350209 0 
17 49.2302 61.8658 0 
18 54.7394 62.5349 0 
19 57.1255 1.23274 0 
20 60.1839 1.27767 0 
21 1.24978 2.41667 0 
22 2.73213 2.14327 0 
23 7.21214 3.67022 0 
24 9.95947 3.47173 0 
25 13.419 2.31492 0 
26 16.3724 2.7832 0 
27 17.5117 2.19081 0 
28 21.6284 4.02174 0 
29 25.5828 3.11336 0 
30 29.4394 2.42423 0 
31 32.1545 3.80966 0 
32 35.8326 3.50181 0 
33 37.7143 2.98704 0 
34 40.4429 2.89293 0 
35 45.0647 3.52752 0 
36 47.2987 3.79481 0 
37 50.1802 2.50978 0 
38 53.4115 2.8129 0 
39 56.0387 4.27045 0 
40 59.7257 2.82205 0 
41 0.671282 5.31804 0 
42 2.87019 6.09114 0 
43 7.69256 6.18978 0 
44 8.79847 7.67267 0 
45 14.0553 6.44034 0 
46 14.9586 7.54424 0 
47 18.5513 7.66045 0 
48 21.751 5.0883 0 
49 26.0985 6.49062 0 
50 29.1397 6.16982 0 
51 32.913 7.70454 0 
52 33.5619 6.15194 0 
53 39.3643 6.46272 0 
54 40.7906 7.1795 0 
55 44.4034 5.28629 0 
56 48.6762 5.18685 0 
57 49.8497 7.48014 0 
58 53.5174 6.37827 0 
59 57.1134 5.62172 0 
60 59.3518 5.99803 0 
61 0.651136 8.97915 0 
62 3.92776 10.2762 0 
63 5.84388 8.59084 0 
64 8.09963 10.4704 0 
65 13.0909 10.3274 0 
66 17.2526 9.23933 0 
67 19.3436 9.27992 0 
68 22.5553 10.9482 0 
69 25.9774 8.54313 0 
70 27.3345 8.18853 0 
71 31.2551 8.06339 0 
72 35.3514 9.4055 0 
73 36.8073 8.99192 0 
74 41.2707 9.20388 0 
75 43.6749 9.95342 0 
76 46.6159 9.31458 0 
77 50.1042 9.14889 0 
78 52.5452 9.52333 0 
79 56.7992 8.20612 0 
80 61.1969 10.4109 0 
81 61.9087 13.8584 0 
82 2.95189 11.1911 0 
83 5.55457 13.4722 0 
84 9.58353 14.0612 0 
85 11.5358 11.1454 0 
86 14.3041 12.6795 0 
87 18.7316 13.6673 0 
88 22.6201 12.1096 0 
89 25.3785 11.6029 0 
90 27.1559 12.4481 0 
91 30.2304 12.9922 0 
92 36.069 13.5753 0 
93 38.4945 11.5079 0 
94 42.5113 11.3361 0 
95 44.89 11.5462 0 
96 47.859 13.7383 0 
97 49.4808 13.0033 0 
98 54.4581 12.8968 0 
99 55.9493 13.727 0 
100 58.7277 14.1083 0 
101 0.076092 16.0295 0 
102 4.05939 14.3337 0 
103 5.77285 15.3858 0 
104 8.16676 16.7932 0 
105 12.9189 14.9177 0 
106 14.401 16.3995 0 
107 18.1527 14.7105 0 
108 21.5256 17.2427 0 
109 25.2736 16.4225 0 
110 27.7625 16.851 0 
111 30.868 14.5714 0 
112 35.2807 16.4011 0 
113 38.5703 16.4309 0 
114 41.5502 16.9742 0 
115 44.0254 17.0583 0 
116 45.9925 16.1532 0 
117 51.2851 15.6046 0 
118 54.9073 16.2703 0 
119 58.0928 15.3453 0 
120 60.5228 17.0998 0 
121 62.138 18.1914 0 
122 2.09004 20.2458 0 
123 7.25509 18.0943 0 
124 9.04887 18.6215 0 
125 14.0757 19.9492 0 
126 14.5477 19.459 0 
127 18.6689 19.4765 0 
128 21.484 19.9925 0 
129 25.8218 20.2709 0 
130 28.6526 18.7245 0 
131 31.9558 18.8852 0 
132 36.2506 20.4174 0 
133 38.1428 18.2542 0 
134 41.4404 18.2466 0 
135 45.1591 19.7272 0 
136 46.2479 18.9765 0 
137 49.9019 17.7724 0 
138 54.0892 18.7531 0 
139 57.742 19.6055 0 
140 59.9998 17.7605 0 
141 1.06253 22.2118 0 
142 3.48105 23.0864 0 
143 7.60634 22.1921 0 
144 8.7846 21.4416 0 
145 12.1112 23.0949 0 
146 17.1199 21.776 0 
147 17.9712 23.2395 0 
148 20.9149 21.2997 0 
149 24.0805 21.1385 0 
150 28.0053 23.2558 0 
151 30.7842 22.6048 0 
152 36.112 22.3942 0 
153 36.6904 21.446 0 
154 40.6408 22.8579 0 
155 43.688 23.4363 0 
156 48.303 22.0901 0 
157 51.2472 21.9783 0 
158 54.1295 23.0943 0 
159 56.4539 21.3672 0 
160 58.9212 22.2116 0 
161 0.699781 26.1574 0 
162 4.09863 26.1201 0 
163 5.15023 24.2137 0 
164 9.67404 26.6221 0 
165 13.24 23.9373 0 
166 15.564 23.9374 0 
167 19.7816 25.8685 0 
168 21.2747 25.208 0 
169 26.3521 24.6746 0 
170 27.9927 24.4339 0 
171 31.4803 25.2642 0 
172 35.8141 24.0789 0 
173 38.7228 25.7269 0 
174 41.0879 25.9195 0 
175 42.9294 25.2106 0 
176 48.54 24.1164 0 
177 51.1157 25.2049 0 
178 53.4073 26.7087 0 
179 56.0568 26.6835 0 
180 60.6829 26.114 0 
181 61.7754 27.57 0 
182 4.64963 29.5812 0 
183 5.00197 29.2488 0 
184 8.65493 27.0206 0 
185 12.8823 28.631 0 
186 16.68 27.3006 0 
187 18.5319 29.6584 0 
188 22.3326 27.2155 0 
189 24.2233 29.2612 0 
190 28.9129 27.7282 0 
191 32.1229 28.4178 0 
192 33.3001 27.3631 0 
193 39.3685 26.9748 0 
194 42.171 27.5427 0 
195 44.0812 27.7138 0 
196 46.2709 29.4312 0 
197 49.4495 28.1158 0 
198 55.157 27.6617 0 
199 56.0203 29.7759 0 
200 60.7612 27.4417 0 
201 62.4399 30.4898 0 
202 2.92891 31.0457 0 
203 6.15019 32.4707 0 
204 10.3581 31.715 0 
205 13.7157 30.7681 0 
206 15.3076 32.9228 0 
207 19.3991 31.2875 0 
208 21.3375 31.6972 0 
209 25.2682 31.0599 0 
210 29.2705 30.1 0 
211 31.4412 30.6799 0 
212 35.4776 30.7168 0 
213 37.534 31.2323 0 
214 40.4524 31.8387 0 
215 45.6052 31.3082 0 
216 46.4239 32.5399 0 
217 50.957 32.2246 0 
218 53.1298 30.1261 0 
219 57.8008 30.305 0 
220 59.7253 31.5902 0 
221 62.4526 34.109 0 
222 3.53369 35.2147 0 
223 5.6028 35.9891 0 
224 10.5337 35.4601 0 
225 12.3762 35.8219 0 
226 16.7757 34.2317 0 
227 19.1378 35.2297 0 
228 22.9321 34.2152 0 
229 24.5384 34.8409 0 
230 29.5752 35.6984 0 
231 30.877 34.4201 0 
232 33.3362 35.542 0 
233 39.2143 35.2252 0 
234 39.6302 35.2693 0 
235 44.1863 35.5425 0 
236 46.5622 35.326 0 
237 51.0712 35.474 0 
238 53.3259 33.767 0 
239 56.533 33.5539 0 
240 60.6152 35.888 0 
241 0.886945 36.6581 0 
242 1.91314 36.7226 0 
243 6.89012 36.5463 0 
244 8.91818 37.8082 0 
245 12.681 38.6905 0 
246 15.2675 37.4393 0 
247 19.3641 36.7386 0 
248 21.8532 39.2764 0 
249 23.911 39.2921 0 
250 27.998 39.1532 0 
251 30.5264 39.0565 0 
252 35.8156 36.8623 0 
253 37.1212 38.1637 0 
254 42.1879 39.1929 0 
255 44.2944 37.1468 0 
256 47.3645 37.0963 0 
257 51.9202 38.9296 0 
258 53.3272 37.3498 0 
259 56.8089 37.4055 0 
260 59.4927 38.1417 0 
261 0.939988 40.0848 0 
262 3.18891 41.306 0 
263 7.08643 41.3611 0 
264 9.52298 42.12 0 
265 13.8414 41.2351 0 
266 14.9448 40.9959 0 
267 20.3158 41.9827 0 
268 23.3594 42.4079 0 
269 26.4699 41.7872 0 
270 28.9611 39.8717 0 
271 31.2362 40.4505 0 
272 33.6987 42.4677 0 
273 36.4449 40.4619 0 
274 42.5565 40.8073 0 
275 43.5419 39.6072 0 
276 46.5652 41.0588 0 
277 52.0773 41.7489 0 
278 53.2874 41.1259 0 
279 56.7128 40.0092 0 
280 60.4387 40.3758 0 
281 62.1833 45.2953 0 
282 3.73007 44.4412 0 
283 5.92354 43.7749 0 
284 8.23246 45.0727 0 
285 12.1957 45.0398 0 
286 14.5004 45.2234 0 
287 19.1536 45.5921 0 
288 21.2991 42.9244 0 
289 26.11 43.0013 0 
290 29.1139 43.3836 0 
291 32.0299 44.814 0 
292 33.4158 43.5401 0 
293 38.4127 45.2607 0 
294 41.2606 43.2033 0 
295 42.8613 44.5789 0 
296 48.7506 43.8629 0 
297 51.9165 45.6591 0 
298 54.095 44.9272 0 
299 55.4913 45.019 0 
300 60.1421 45.1173 0 
301 1.26226 46.5144 0 
302 2.31468 46.1967 0 
303 6.17764 47.5128 0 
304 8.71872 46.7732 0 
305 13.0869 47.0772 0 
306 15.9559 48.1542 0 
307 18.7697 48.1527 0 
308 21.6145 48.691 0 
309 24.0063 47.0289 0 
310 29.7367 46.2759 0 
311 30.6281 47.2337 0 
312 35.7748 48.8449 0 
313 39.0642 48.0176 0 
314 39.7182 46.9409 0 
315 45.2314 47.25 0 
316 48.2127 45.9469 0 
317 52.0391 48.3527 0 
318 52.553 46.6436 0 
319 57.0418 45.9523 0 
320 60.714 48.3672 0 
321 62.5029 52.0312 0 
322 2.789 51.2046 0 
323 7.4242 50.3069 0 
324 10.3332 51.1319 0 
325 11.2194 51.6426 0 
326 15.5046 49.7938 0 
327 17.9142 49.8751 0 
328 21.7698 50.4973 0 
329 25.8957 49.2129 0 
330 27.0336 50.5424 0 
331 32.1467 51.4845 0 
332 35.729 49.4072 0 
333 38.2784 51.5826 0 
334 40.831 51.8655 0 
335 42.863 50.2675 0 
336 45.9389 50.6779 0 
337 51.8063 50.4545 0 
338 54.3586 49.6745 0 
339 57.4237 49.252 0 
340 60.0048 51.8497 0 
341 0.541117 52.6405 0 
342 2.57399 53.5807 0 
343 6.75811 54.3179 0 
344 9.21841 52.2334 0 
345 13.4485 54.835 0 
346 14.8273 53.3879 0 
347 19.1286 52.4452 0 
348 21.2524 54.7291 0 
349 25.396 54.5484 0 
350 28.7166 55.0538 0 
351 32.502 55.1728 0 
352 35.7551 54.1645 0 
353 39.2579 53.8145 0 
354 40.9924 54.8491 0 
355 45.1052 53.8863 0 
356 48.4924 53.7867 0 
357 50.3077 52.956 0 
358 53.1607 54.475 0 
359 55.631 52.8314 0 
360 61.2156 53.3844 0 
361 1.31134 55.6447 0 
362 3.35919 56.2781 0 
363 6.48737 56.2716 0 
364 8.5252 56.5325 0 
365 12.734 57.5899 0 
366 16.3238 57.0052 0 
367 19.0427 56.3555 0 
368 23.1336 58.3887 0 
369 26.6779 55.5796 0 
370 28.0854 56.2793 0 
371 31.4777 55.7001 0 
372 35.1304 57.0783 0 
373 36.7879 56.8291 0 
374 40.0249 56.1504 0 
375 43.6022 57.6049 0 
376 47.319 57.3404 0 
377 51.8161 56.9926 0 
378 54.3918 58.3216 0 
379 57.8792 55.5564 0 
380 60.955 57.7423 0 
381 62.5659 61.1011 0 
382 2.88446 59.6502 0 
383 7.34524 59.0508 0 
384 10.1865 59.2473 0 
385 14.0087 58.6772 0 
386 17.2449 59.5343 0 
387 20.2038 58.5945 0 
388 22.6309 60.008 0 
389 24.9873 60.6758 0 
390 27.2334 60.3777 0 
391 32.5917 59.0487 0 
392 33.7459 59.8658 0 
393 36.5742 59.7217 0 
394 40.8451 60.984 0 
395 43.3671 61.4717 0 
396 48.4162 61.2629 0 
397 50.4199 59.9806 0 
398 54.1348 60.6087 0 
399 56.3306 59.8465 0 
400 61.1587 59.9194 0 
ITEM: TIMESTEP
20
ITEM: NUMBER OF ATOMS
390
ITEM: BOX BOUNDS pp pp pp
0.0000000000000000e+00 6.3245553203367592e+01
0.0000000000000000e+00 6.3245553203367592e+01
-3.1622776601683800e-01 3.1622776601683800e-01
ITEM: ATOMS id x y z 
1 61.1978 62.4278 0 
2 3.52517 1.85128 0 
3 4.90187 61.6749 0 
4 10.5169 2.9312 0 
5 13.8289 61.612 0 
6 52.2247 46.6016 0 
400 62.2342 59.7553 0 
399 55.7506 59.6104 0 
9 27.2813 1.08167 0 
10 26.5404 62.9733 0 
11 29.0681 60.6732 0 
12 32.5526 63.2362 0 
13 36.1903 60.8364 0 
14 39.6347 2.00931 0 
15 42.2081 0.224354 0 
16 48.5077 0.700259 0 
17 49.8808 61.5934 0 
18 55.7197 61.8237 0 
19 57.33 2.46547 0 
20 60.316 2.53999 0 
21 1.92376 2.11732 0 
22 2.65252 0.771927 0 
23 8.09976 4.17822 0 
24 10.4321 3.78143 0 
25 14.1888 1.46757 0 
26 16.9315 2.40652 0 
27 44.5227 20.7072 0 
28 20.7728 3.33794 0 
29 25.8675 3.06444 0 
30 30.4184 1.68619 0 
31 32.6863 4.45721 0 
32 36.8811 3.84072 0 
33 37.4804 2.81242 0 
34 39.8316 3.14824 0 
35 45.857 3.89373 0 
36 47.1631 4.42738 0 
37 49.764 1.85728 0 
38 53.0642 2.46352 0 
39 55.1571 5.37904 0 
40 59.3365 2.49717 0 
41 1.34269 4.31161 0 
42 2.57797 5.85765 0 
43 9.06066 6.05519 0 
44 8.11 9.02055 0 
45 15.4621 6.55759 0 
46 14.1052 8.76246 0 
47 18.3984 8.085 0 
48 21.7141 5.39529 0 
49 26.7616 4.17651 0 
50 29.8189 6.01508 0 
51 34.2031 9.08421 0 
52 32.3386 5.97951 0 
53 40.7826 6.60273 0 
54 40.4705 8.03321 0 
55 44.5358 4.24715 0 
56 49.9181 4.04902 0 
57 48.9612 8.45561 0 
58 53.276 6.43199 0 
59 57.3055 4.91862 0 
60 58.62 5.67141 0 
61 1.30227 8.47146 0 
62 4.69104 11.0664 0 
63 5.36321 7.69484 0 
64 6.71243 11.4541 0 
65 13.5324 11.1682 0 
66 18.426 9.90393 0 
67 19.712 9.07223 0 
68 22.5553 9.42788 0 
398 54.5115 61.1343 0 
397 50.2432 59.878 0 
71 30.8877 6.63992 0 
72 35.8347 9.46116 0 
73 35.7504 8.36002 0 
74 41.4315 8.92039 0 
75 45.0039 5.13357 0 
76 45.7977 9.14233 0 
77 49.7538 8.9911 0 
78 51.3315 9.5598 0 
79 56.6774 6.92536 0 
80 62.3106 11.335 0 
81 60.5719 15.0678 0 
82 2.74369 9.73217 0 
83 5.09406 14.3283 0 
84 9.68022 15.4732 0 
85 10.4228 9.64162 0 
86 12.7969 12.7101 0 
87 18.6017 14.64 0 
88 23.5236 14.552 0 
89 25.4592 10.5571 0 
90 25.8509 12.2467 0 
91 28.8393 13.3366 0 
92 37.353 14.5014 0 
93 39.0417 10.3668 0 
94 41.9872 15.3097 0 
95 45.5077 10.4432 0 
96 48.2848 14.8263 0 
97 48.3641 13.3585 0 
98 55.1584 13.1456 0 
99 54.9767 14.8037 0 
100 57.1726 14.3923 0 
101 0.152146 16.2478 0 
102 4.62669 12.7294 0 
103 5.24152 15.0536 0 
104 7.10613 13.2147 0 
105 13.1887 14.0237 0 
106 12.9904 16.9875 0 
107 17.2196 13.655 0 
108 20.9153 18.674 0 
109 25.2491 17.0336 0 
110 27.0646 17.8908 0 
111 30.1119 13.3299 0 
112 35.7764 16.9908 0 
113 39.1932 17.0512 0 
114 42.3054 16.8522 0 
115 43.779 18.3051 0 
116 44.5506 16.4951 0 
117 51.9737 15.3979 0 
118 56.0559 16.7291 0 
119 59.4641 16.0543 0 
120 60.2426 15.5517 0 
121 0.909878 19.0488 0 
122 1.01794 21.5191 0 
123 7.92733 21.7756 0 
124 8.60971 18.269 0 
125 14.3068 22.1776 0 
126 14.4797 18.6915 0 
127 18.3642 19.9795 0 
128 20.8553 21.0029 0 
129 26.3453 21.5683 0 
130 28.8445 18.475 0 
131 32.2888 18.7968 0 
132 38.2831 18.1225 0 
133 38.3384 17.534 0 
134 41.4567 18.8043 0 
135 46.0467 20.4806 0 
136 45.0614 18.9794 0 
137 49.2073 16.5711 0 
138 54.4197 18.5325 0 
139 58.5629 20.2374 0 
140 57.5111 17.7441 0 
141 2.12496 22.2865 0 
142 3.54561 24.1144 0 
143 8.88916 22.2467 0 
144 8.08133 20.7487 0 
145 11.5748 24.0544 0 
146 18.4286 21.4162 0 
147 16.9686 24.3426 0 
148 19.6705 20.4719 0 
149 22.8629 20.1409 0 
150 27.6318 21.3324 0 
151 29.9456 23.0737 0 
152 37.8185 22.9313 0 
153 34.5427 24.1785 0 
154 40.172 23.5799 0 
155 43.1035 24.7372 0 
156 49.172 22.0452 0 
157 51.898 21.8206 0 
158 54.5002 24.0526 0 
159 55.9869 20.5985 0 
160 57.759 22.2873 0 
161 1.39941 27.0167 0 
162 5.035 26.942 0 
163 4.23008 23.0519 0 
164 9.86076 27.9456 0 
165 13.8298 22.5759 0 
166 15.3165 22.5765 0 
167 20.591 26.4371 0 
168 20.412 25.1194 0 
169 27.4034 24.0489 0 
170 27.4458 26.615 0 
171 31.338 25.2304 0 
172 36.7876 22.897 0 
173 39.4933 26.1543 0 
174 41.1226 26.5689 0 
175 41.587 25.123 0 
176 49.6456 22.9338 0 
177 51.6349 25.1116 0 
178 53.056 28.1193 0 
179 58.577 23.5403 0 
180 61.4482 26.6049 0 
181 0.389482 27.5287 0 
396 47.3814 61.3352 0 
392 32.7056 59.646 0 
184 7.82353 25.581 0 
185 13.1156 28.8017 0 
186 17.5485 26.1407 0 
187 18.0907 30.8568 0 
188 22.5293 25.9704 0 
189 23.1485 30.0621 0 
190 29.3653 26.9961 0 
191 32.6235 28.3741 0 
192 31.8143 26.2666 0 
193 40.7391 25.462 0 
194 43.223 26.6206 0 
195 43.8996 26.971 0 
196 45.1079 30.403 0 
197 48.3025 27.771 0 
198 53.171 31.3914 0 
199 55.1197 31.0911 0 
200 57.9437 25.8985 0 
201 61.6343 29.3568 0 
202 2.69555 30.4685 0 
203 5.97582 33.3186 0 
204 11.2295 31.8073 0 
205 14.7822 29.9132 0 
206 14.8041 34.2228 0 
207 19.825 30.9521 0 
208 20.5381 31.7711 0 
209 25.238 30.4968 0 
210 30.0807 28.5773 0 
211 31.2594 29.7368 0 
212 36.1706 29.8111 0 
213 37.1202 30.8416 0 
214 39.7952 32.0545 0 
215 46.9386 30.9935 0 
216 45.4132 33.456 0 
217 51.3175 32.8264 0 
218 52.5009 28.6293 0 
219 58.6805 28.9872 0 
220 59.3673 31.5576 0 
221 61.6597 33.4329 0 
222 4.68509 33.9274 0 
223 4.88189 37.1932 0 
224 11.5799 36.1339 0 
225 12.1039 36.8599 0 
226 17.7398 33.6783 0 
227 18.9885 35.1666 0 
228 23.7295 33.6466 0 
229 23.7771 34.8954 0 
230 30.6901 36.6114 0 
231 30.131 34.0555 0 
232 31.8874 36.2989 0 
395 42.6068 61.6312 0 
394 40.5806 61.8847 0 
235 43.9667 35.7927 0 
236 45.6905 35.8674 0 
237 51.5461 36.163 0 
238 52.8931 32.7489 0 
239 56.1449 32.3228 0 
240 61.1472 36.991 0 
241 61.4346 34.9182 0 
242 3.4691 37.6657 0 
243 7.45468 35.1452 0 
244 8.34948 37.669 0 
245 12.7128 39.4336 0 
246 14.7237 36.9313 0 
247 20.0679 36.0375 0 
248 21.5713 40.6055 0 
249 22.5231 40.6369 0 
250 27.5376 40.3594 0 
251 29.4961 40.203 0 
252 36.8462 35.7775 0 
253 36.2949 38.3799 0 
254 43.1655 40.4082 0 
255 44.4509 36.8536 0 
256 47.2944 36.2449 0 
257 53.2441 39.9122 0 
258 52.8956 36.7524 0 
259 56.6967 36.8637 0 
260 58.9022 38.3362 0 
261 1.87998 39.06 0 
262 3.21555 41.5025 0 
263 7.84835 41.6126 0 
264 9.55908 43.1304 0 
265 13.4574 42.2463 0 
266 15.6545 39.9963 0 
267 2.49907 26.5379 0 
268 24.5828 43.7063 0 
269 28.153 41.9674 0 
270 29.3956 38.5975 0 
271 30.8477 39.79 0 
272 33.4092 42.6534 0 
273 34.9425 39.8141 0 
274 44.0748 40.5527 0 
275 42.8414 38.0875 0 
276 45.6963 41.008 0 
277 53.5532 42.4029 0 
278 52.821 41.1269 0 
279 56.5045 38.9087 0 
280 60.7941 39.642 0 
281 61.1202 46.3185 0 
282 4.29788 44.6105 0 
283 5.52235 43.278 0 
284 6.97722 45.8739 0 
285 11.7426 45.808 0 
286 13.1759 46.0748 0 
287 19.3334 46.9124 0 
288 39.6212 57.8948 0 
289 26.4104 42.2282 0 
290 29.7674 42.4953 0 
291 32.437 45.3555 0 
292 31.2495 43.9812 0 
293 38.8533 45.6037 0 
294 41.4117 42.1347 0 
295 41.4505 44.8859 0 
296 50.0667 43.4542 0 
297 50.424 35.6267 0 
298 53.5451 45.401 0 
299 54.9478 45.9476 0 
300 60.2017 45.963 0 
301 1.55263 46.3576 0 
302 2.43914 44.1962 0 
303 6.03074 47.5915 0 
304 7.95145 46.1119 0 
305 13.5378 46.8202 0 
306 16.1109 48.8685 0 
307 18.5652 48.8716 0 
308 21.0376 49.8205 0 
309 22.7143 46.6236 0 
310 31.0139 45.1199 0 
311 29.6326 47.0308 0 
312 38.4024 30.176 0 
313 40.1815 48.5991 0 
314 38.3511 47.0954 0 
315 46.1909 47.0658 0 
316 48.9915 44.4592 0 
391 33.5618 58.0164 0 
393 35.201 59.3603 0 
319 57.1624 44.4704 0 
320 61.3447 49.3003 0 
321 1.83275 49.2365 0 
322 2.41541 51.813 0 
323 8.52375 50.0171 0 
324 10.9045 51.2172 0 
325 10.0632 53.1394 0 
326 15.1869 48.9967 0 
327 16.8555 49.1535 0 
328 21.459 50.5255 0 
329 26.4935 47.8297 0 
330 25.6065 50.4881 0 
331 32.6706 52.3726 0 
332 35.035 5.0519 0 
333 38.6096 52.5688 0 
334 40.5532 53.1285 0 
335 41.4541 49.9387 0 
336 44.4436 50.7593 0 
337 53.0161 50.3123 0 
338 54.9584 48.7525 0 
339 57.9264 47.9076 0 
340 59.9266 53.1031 0 
341 1.08313 51.523 0 
342 1.98553 53.4031 0 
343 7.19168 54.8775 0 
344 8.95164 50.7079 0 
345 14.248 55.9111 0 
346 13.843 53.0172 0 
347 19.2835 51.1317 0 
348 20.3686 55.6996 0 
349 25.4943 55.3383 0 
350 28.9826 56.3455 0 
351 33.3796 56.587 0 
352 36.7252 54.5702 0 
353 40.5677 53.8766 0 
354 40.8738 55.9399 0 
355 45.9385 54.0139 0 
356 49.551 53.8144 0 
357 50.0186 52.1535 0 
358 52.5626 55.1913 0 
359 54.341 51.904 0 
360 59.0291 57.2385 0 
361 2.62308 54.3678 0 
362 3.55577 55.635 0 
363 6.65105 55.6219 0 
364 7.56268 56.1439 0 
365 12.8194 58.2592 0 
366 16.8363 57.0894 0 
367 19.1121 55.79 0 
368 24.1346 59.8557 0 
369 28.059 54.2399 0 
370 27.6985 55.639 0 
371 31.3344 54.4791 0 
372 35.2742 57.3878 0 
373 35.8299 56.585 0 
374 38.9414 55.3789 0 
375 42.9326 58.2888 0 
376 47.2039 57.7598 0 
377 53.0357 57.0643 0 
378 55.0141 59.7218 0 
379 58.8374 54.1917 0 
380 61.8268 58.5641 0 
381 62.017 61.9726 0 
382 2.60664 59.2172 0 
383 8.36593 58.0182 0 
384 10.8862 58.4113 0 
385 15.3677 57.2708 0 
386 18.6784 58.9854 0 
387 21.4338 57.1058 0 
388 23.1225 59.9335 0 
389 24.6765 61.2681 0 
390 26.006 60.6722 0 
