ITEM: TIMESTEP
0
ITEM: NUMBER OF ATOMS
400
ITEM: BOX BOUNDS pp pp pp
0.0000000000000000e+00 6.3245553203367592e+01
0.0000000000000000e+00 6.3245553203367592e+01
-3.1622776601683800e-01 3.1622776601683800e-01
ITEM: ATOMS id type xs ys zs
1 1 0 0 0.5
2 1 0.05 0 0.5
3 1 0.1 0 0.5
4 1 0.15 0 0.5
5 1 0.2 0 0.5
6 1 0.25 0 0.5
7 1 0.3 0 0.5
8 1 0.35 0 0.5
9 1 0.4 0 0.5
10 1 0.45 0 0.5
11 1 0.5 0 0.5
12 1 0.55 0 0.5
13 1 0.6 0 0.5
14 1 0.65 0 0.5
15 1 0.7 0 0.5
16 1 0.75 0 0.5
17 1 0.8 0 0.5
18 1 0.85 0 0.5
19 1 0.9 0 0.5
20 1 0.95 0 0.5
21 1 0 0.05 0.5
22 1 0.05 0.05 0.5
23 1 0.1 0.05 0.5
24 1 0.15 0.05 0.5
25 1 0.2 0.05 0.5
26 1 0.25 0.05 0.5
27 1 0.3 0.05 0.5
28 1 0.35 0.05 0.5
29 1 0.4 0.05 0.5
30 1 0.45 0.05 0.5
31 1 0.5 0.05 0.5
32 1 0.55 0.05 0.5
33 1 0.6 0.05 0.5
34 1 0.65 0.05 0.5
35 1 0.7 0.05 0.5
36 1 0.75 0.05 0.5
37 1 0.8 0.05 0.5
38 1 0.85 0.05 0.5
39 1 0.9 0.05 0.5
40 1 0.95 0.05 0.5
41 1 0 0.1 0.5
42 1 0.05 0.1 0.5
43 1 0.1 0.1 0.5
44 1 0.15 0.1 0.5
45 1 0.2 0.1 0.5
46 1 0.25 0.1 0.5
47 1 0.3 0.1 0.5
48 1 0.35 0.1 0.5
49 1 0.4 0.1 0.5
50 1 0.45 0.1 0.5
51 1 0.5 0.1 0.5
52 1 0.55 0.1 0.5
53 1 0.6 0.1 0.5
54 1 0.65 0.1 0.5
55 1 0.7 0.1 0.5
56 1 0.75 0.1 0.5
57 1 0.8 0.1 0.5
58 1 0.85 0.1 0.5
59 1 0.9 0.1 0.5
60 1 0.95 0.1 0.5
61 1 0 0.15 0.5
62 1 0.05 0.15 0.5
63 1 0.1 0.15 0.5
64 1 0.15 0.15 0.5
65 1 0.2 0.15 0.5
66 1 0.25 0.15 0.5
67 1 0.3 0.15 0.5
68 1 0.35 0.15 0.5
69 1 0.4 0.15 0.5
70 1 0.45 0.15 0.5
71 1 0.5 0.15 0.5
72 1 0.55 0.15 0.5
73 1 0.6 0.15 0.5
74 1 0.65 0.15 0.5
75 1 0.7 0.15 0.5
76 1 0.75 0.15 0.5
77 1 0.8 0.15 0.5
78 1 0.85 0.15 0.5
79 1 0.9 0.15 0.5
80 1 0.95 0.15 0.5
81 1 0 0.2 0.5
82 1 0.05 0.2 0.5
83 1 0.1 0.2 0.5
84 1 0.15 0.2 0.5
85 1 0.2 0.2 0.5
86 1 0.25 0.2 0.5
87 1 0.3 0.2 0.5
88 1 0.35 0.2 0.5
89 1 0.4 0.2 0.5
90 1 0.45 0.2 0.5
91 1 0.5 0.2 0.5
92 1 0.55 0.2 0.5
93 1 0.6 0.2 0.5
94 1 0.65 0.2 0.5
95 1 0.7 0.2 0.5
96 1 0.75 0.2 0.5
97 1 0.8 0.2 0.5
98 1 0.85 0.2 0.5
99 1 0.9 0.2 0.5
100 1 0.95 0.2 0.5
101 1 0 0.25 0.5
102 1 0.05 0.25 0.5
103 1 0.1 0.25 0.5
104 1 0.15 0.25 0.5
105 1 0.2 0.25 0.5
106 1 0.25 0.25 0.5
107 1 0.3 0.25 0.5
108 1 0.35 0.25 0.5
109 1 0.4 0.25 0.5
110 1 0.45 0.25 0.5
111 1 0.5 0.25 0.5
112 1 0.55 0.25 0.5
113 1 0.6 0.25 0.5
114 1 0.65 0.25 0.5
115 1 0.7 0.25 0.5
116 1 0.75 0.25 0.5
117 1 0.8 0.25 0.5
118 1 0.85 0.25 0.5
119 1 0.9 0.25 0.5
120 1 0.95 0.25 0.5
121 1 0 0.3 0.5
122 1 0.05 0.3 0.5
123 1 0.1 0.3 0.5
124 1 0.15 0.3 0.5
125 1 0.2 0.3 0.5
126 1 0.25 0.3 0.5
127 1 0.3 0.3 0.5
128 1 0.35 0.3 0.5
129 1 0.4 0.3 0.5
130 1 0.45 0.3 0.5
131 1 0.5 0.3 0.5
132 1 0.55 0.3 0.5
133 1 0.6 0.3 0.5
134 1 0.65 0.3 0.5
135 1 0.7 0.3 0.5
136 1 0.75 0.3 0.5
137 1 0.8 0.3 0.5
138 1 0.85 0.3 0.5
139 1 0.9 0.3 0.5
140 1 0.95 0.3 0.5
141 1 0 0.35 0.5
142 1 0.05 0.35 0.5
143 1 0.1 0.35 0.5
144 1 0.15 0.35 0.5
145 1 0.2 0.35 0.5
146 1 0.25 0.35 0.5
147 1 0.3 0.35 0.5
148 1 0.35 0.35 0.5
149 1 0.4 0.35 0.5
150 1 0.45 0.35 0.5
151 1 0.5 0.35 0.5
152 1 0.55 0.35 0.5
153 1 0.6 0.35 0.5
154 1 0.65 0.35 0.5
155 1 0.7 0.35 0.5
156 1 0.75 0.35 0.5
157 1 0.8 0.35 0.5
158 1 0.85 0.35 0.5
159 1 0.9 0.35 0.5
160 1 0.95 0.35 0.5
161 1 0 0.4 0.5
162 1 0.05 0.4 0.5
163 1 0.1 0.4 0.5
164 1 0.15 0.4 0.5
165 1 0.2 0.4 0.5
166 1 0.25 0.4 0.5
167 1 0.3 0.4 0.5
168 1 0.35 0.4 0.5
169 1 0.4 0.4 0.5
170 1 0.45 0.4 0.5
171 1 0.5 0.4 0.5
172 1 0.55 0.4 0.5
173 1 0.6 0.4 0.5
174 1 0.65 0.4 0.5
175 1 0.7 0.4 0.5
176 1 0.75 0.4 0.5
177 1 0.8 0.4 0.5
178 1 0.85 0.4 0.5
179 1 0.9 0.4 0.5
180 1 0.95 0.4 0.5
181 1 0 0.45 0.5
182 1 0.05 0.45 0.5
183 1 0.1 0.45 0.5
184 1 0.15 0.45 0.5
185 1 0.2 0.45 0.5
186 1 0.25 0.45 0.5
187 1 0.3 0.45 0.5
188 1 0.35 0.45 0.5
189 1 0.4 0.45 0.5
190 1 0.45 0.45 0.5
191 1 0.5 0.45 0.5
192 1 0.55 0.45 0.5
193 1 0.6 0.45 0.5
194 1 0.65 0.45 0.5
195 1 0.7 0.45 0.5
196 1 0.75 0.45 0.5
197 1 0.8 0.45 0.5
198 1 0.85 0.45 0.5
199 1 0.9 0.45 0.5
200 1 0.95 0.45 0.5
201 1 0 0.5 0.5
202 1 0.05 0.5 0.5
203 1 0.1 0.5 0.5
204 1 0.15 0.5 0.5
205 1 0.2 0.5 0.5
206 1 0.25 0.5 0.5
207 1 0.3 0.5 0.5
208 1 0.35 0.5 0.5
209 1 0.4 0.5 0.5
210 1 0.45 0.5 0.5
211 1 0.5 0.5 0.5
212 1 0.55 0.5 0.5
213 1 0.6 0.5 0.5
214 1 0.65 0.5 0.5
215 1 0.7 0.5 0.5
216 1 0.75 0.5 0.5
217 1 0.8 0.5 0.5
218 1 0.85 0.5 0.5
219 1 0.9 0.5 0.5
220 1 0.95 0.5 0.5
221 1 0 0.55 0.5
222 1 0.05 0.55 0.5
223 1 0.1 0.55 0.5
224 1 0.15 0.55 0.5
225 1 0.2 0.55 0.5
226 1 0.25 0.55 0.5
227 1 0.3 0.55 0.5
228 1 0.35 0.55 0.5
229 1 0.4 0.55 0.5
230 1 0.45 0.55 0.5
231 1 0.5 0.55 0.5
232 1 0.55 0.55 0.5
233 1 0.6 0.55 0.5
234 1 0.65 0.55 0.5
235 1 0.7 0.55 0.5
236 1 0.75 0.55 0.5
237 1 0.8 0.55 0.5
238 1 0.85 0.55 0.5
239 1 0.9 0.55 0.5
240 1 0.95 0.55 0.5
241 1 0 0.6 0.5
242 1 0.05 0.6 0.5
243 1 0.1 0.6 0.5
244 1 0.15 0.6 0.5
245 1 0.2 0.6 0.5
246 1 0.25 0.6 0.5
247 1 0.3 0.6 0.5
248 1 0.35 0.6 0.5
249 1 0.4 0.6 0.5
250 1 0.45 0.6 0.5
251 1 0.5 0.6 0.5
252 1 0.55 0.6 0.5
253 1 0.6 0.6 0.5
254 1 0.65 0.6 0.5
255 1 0.7 0.6 0.5
256 1 0.75 0.6 0.5
257 1 0.8 0.6 0.5
258 1 0.85 0.6 0.5
259 1 0.9 0.6 0.5
260 1 0.95 0.6 0.5
261 1 0 0.65 0.5
262 1 0.05 0.65 0.5
263 1 0.1 0.65 0.5
264 1 0.15 0.65 0.5
265 1 0.2 0.65 0.5
266 1 0.25 0.65 0.5
267 1 0.3 0.65 0.5
268 1 0.35 0.65 0.5
269 1 0.4 0.65 0.5
270 1 0.45 0.65 0.5
271 1 0.5 0.65 0.5
272 1 0.55 0.65 0.5
273 1 0.6 0.65 0.5
274 1 0.65 0.65 0.5
275 1 0.7 0.65 0.5
276 1 0.75 0.65 0.5
277 1 0.8 0.65 0.5
278 1 0.85 0.65 0.5
279 1 0.9 0.65 0.5
280 1 0.95 0.65 0.5
281 1 0 0.7 0.5
282 1 0.05 0.7 0.5
283 1 0.1 0.7 0.5
284 1 0.15 0.7 0.5
285 1 0.2 0.7 0.5
286 1 0.25 0.7 0.5
287 1 0.3 0.7 0.5
288 1 0.35 0.7 0.5
289 1 0.4 0.7 0.5
290 1 0.45 0.7 0.5
291 1 0.5 0.7 0.5
292 1 0.55 0.7 0.5
293 1 0.6 0.7 0.5
294 1 0.65 0.7 0.5
295 1 0.7 0.7 0.5
296 1 0.75 0.7 0.5
297 1 0.8 0.7 0.5
298 1 0.85 0.7 0.5
299 1 0.9 0.7 0.5
300 1 0.95 0.7 0.5
301 1 0 0.75 0.5
302 1 0.05 0.75 0.5
303 1 0.1 0.75 0.5
304 1 0.15 0.75 0.5
305 1 0.2 0.75 0.5
306 1 0.25 0.75 0.5
307 1 0.3 0.75 0.5
308 1 0.35 0.75 0.5
309 1 0.4 0.75 0.5
310 1 0.45 0.75 0.5
311 1 0.5 0.75 0.5
312 1 0.55 0.75 0.5
313 1 0.6 0.75 0.5
314 1 0.65 0.75 0.5
315 1 0.7 0.75 0.5
316 1 0.75 0.75 0.5
317 1 0.8 0.75 0.5
318 1 0.85 0.75 0.5
319 1 0.9 0.75 0.5
320 1 0.95 0.75 0.5
321 1 0 0.8 0.5
322 1 0.05 0.8 0.5
323 1 0.1 0.8 0.5
324 1 0.15 0.8 0.5
325 1 0.2 0.8 0.5
326 1 0.25 0.8 0.5
327 1 0.3 0.8 0.5
328 1 0.35 0.8 0.5
329 1 0.4 0.8 0.5
330 1 0.45 0.8 0.5
331 1 0.5 0.8 0.5
332 1 0.55 0.8 0.5
333 1 0.6 0.8 0.5
334 1 0.65 0.8 0.5
335 1 0.7 0.8 0.5
336 1 0.75 0.8 0.5
337 1 0.8 0.8 0.5
338 1 0.85 0.8 0.5
339 1 0.9 0.8 0.5
340 1 0.95 0.8 0.5
341 1 0 0.85 0.5
342 1 0.05 0.85 0.5
343 1 0.1 0.85 0.5
344 1 0.15 0.85 0.5
345 1 0.2 0.85 0.5
346 1 0.25 0.85 0.5
347 1 0.3 0.85 0.5
348 1 0.35 0.85 0.5
349 1 0.4 0.85 0.5
350 1 0.45 0.85 0.5
351 1 0.5 0.85 0.5
352 1 0.55 0.85 0.5
353 1 0.6 0.85 0.5
354 1 0.65 0.85 0.5
355 1 0.7 0.85 0.5
356 1 0.75 0.85 0.5
357 1 0.8 0.85 0.5
358 1 0.85 0.85 0.5
359 1 0.9 0.85 0.5
360 1 0.95 0.85 0.5
361 1 0 0.9 0.5
362 1 0.05 0.9 0.5
363 1 0.1 0.9 0.5
364 1 0.15 0.9 0.5
365 1 0.2 0.9 0.5
366 1 0.25 0.9 0.5
367 1 0.3 0.9 0.5
368 1 0.35 0.9 0.5
369 1 0.4 0.9 0.5
370 1 0.45 0.9 0.5
371 1 0.5 0.9 0.5
372 1 0.55 0.9 0.5
373 1 0.6 0.9 0.5
374 1 0.65 0.9 0.5
375 1 0.7 0.9 0.5
376 1 0.75 0.9 0.5
377 1 0.8 0.9 0.5
378 1 0.85 0.9 0.5
379 1 0.9 0.9 0.5
380 1 0.95 0.9 0.5
381 1 0 0.95 0.5
382 1 0.05 0.95 0.5
383 1 0.1 0.95 0.5
384 1 0.15 0.95 0.5
385 1 0.2 0.95 0.5
386 1 0.25 0.95 0.5
387 1 0.3 0.95 0.5
388 1 0.35 0.95 0.5
389 1 0.4 0.95 0.5
390 1 0.45 0.95 0.5
391 1 0.5 0.95 0.5
392 1 0.55 0.95 0.5
393 1 0.6 0.95 0.5
394 1 0.65 0.95 0.5
395 1 0.7 0.95 0.5
396 1 0.75 0.95 0.5
397 1 0.8 0.95 0.5
398 1 0.85 0.95 0.5
399 1 0.9 0.95 0.5
400 1 0.95 0.95 0.5
ITEM: TIMESTEP
100
ITEM: NUMBER OF ATOMS
400
ITEM: BOX BOUNDS pp pp pp
0.0000000000000000e+00 6.3245553203367592e+01
0.0000000000000000e+00 6.3245553203367592e+01
-3.1622776601683800e-01 3.1622776601683800e-01
ITEM: ATOMS id type xs ys zs
1 1 0.991294 0.995619 0.5
2 1 0.050623 0.00885652 0.5
3 1 0.0935386 0.992867 0.5
4 1 0.154678 0.0133137 0.5
5 1 0.205358 0.992581 0.5
6 1 0.257443 0.0129417 0.5
7 1 0.312742 0.99679 0.5
8 1 0.337228 0.997488 0.5
9 1 0.409336 0.00423178 0.5
10 1 0.44095 0.999444 0.5
11 1 0.488397 0.988317 0.5
12 1 0.539861 0.999957 0.5
13 1 0.59202 0.989059 0.5
14 1 0.643553 0.0115143 0.5
15 1 0.691283 0.995419 0.5
16 1 0.754884 0.00317812 0.5
17 1 0.787581 0.98747 0.5
18 1 0.858908 0.993545 0.5
19 1 0.901858 0.0111974 0.5
20 1 0.950913 0.0116131 0.5
21 1 0.0113625 0.0432268 0.5
22 1 0.0460846 0.0407225 0.5
23 1 0.108062 0.0546139 0.5
24 1 0.154293 0.0528109 0.5
25 1 0.206993 0.0423031 0.5
26 1 0.25512 0.0465397 0.5
27 1 0.286697 0.0411784 0.5
28 1 0.345391 0.0578352 0.5
29 1 0.402585 0.0495557 0.5
30 1 0.458892 0.043296 0.5
31 1 0.50483 0.0558805 0.5
32 1 0.559516 0.053084 0.5
33 1 0.597883 0.0484083 0.5
34 1 0.643944 0.0475476 0.5
35 1 0.707201 0.0533197 0.5
36 1 0.748772 0.0557531 0.5
37 1 0.796219 0.0440731 0.5
38 1 0.846846 0.0468264 0.5
39 1 0.891988 0.0600774 0.5
40 1 0.946752 0.046902 0.5
41 1 0.00609753 0.0908575 0.5
42 1 0.0473468 0.0978798 0.5
43 1 0.112443 0.0987807 0.5
44 1 0.14373 0.112241 0.5
45 1 0.212805 0.101058 0.5
46 1 0.242222 0.111072 0.5
47 1 0.296165 0.112139 0.5
48 1 0.346502 0.0887422 0.5
49 1 0.407269 0.101508 0.5
50 1 0.456169 0.0985945 0.5
51 1 0.51174 0.112581 0.5
52 1 0.53885 0.098444 0.5
53 1 0.612882 0.101257 0.5
54 1 0.647092 0.107764 0.5
55 1 0.701195 0.090567 0.5
56 1 0.761284 0.0896603 0.5
57 1 0.793213 0.110499 0.5
58 1 0.847808 0.100488 0.5
59 1 0.901746 0.0936045 0.5
60 1 0.943356 0.097034 0.5
61 1 0.00591453 0.145388 0.5
62 1 0.0569471 0.157202 0.5
63 1 0.0956339 0.141861 0.5
64 1 0.137399 0.158935 0.5
65 1 0.204004 0.157665 0.5
66 1 0.263091 0.147752 0.5
67 1 0.30336 0.148116 0.5
68 1 0.353809 0.163298 0.5
69 1 0.406183 0.141427 0.5
70 1 0.439758 0.138208 0.5
71 1 0.49668 0.137013 0.5
72 1 0.555155 0.14926 0.5
73 1 0.589634 0.145505 0.5
74 1 0.651463 0.14743 0.5
75 1 0.694578 0.154241 0.5
76 1 0.742567 0.148435 0.5
77 1 0.795529 0.146926 0.5
78 1 0.838977 0.150332 0.5
79 1 0.898893 0.138367 0.5
80 1 0.960116 0.158394 0.5
81 1 0.987857 0.210985 0.5
82 1 0.048095 0.186724 0.5
83 1 0.0930059 0.207477 0.5
84 1 0.150878 0.212826 0.5
85 1 0.189896 0.186312 0.5
86 1 0.236309 0.200276 0.5
87 1 0.297798 0.209277 0.5
88 1 0.354398 0.195076 0.5
89 1 0.400731 0.190497 0.5
90 1 0.438148 0.198174 0.5
91 1 0.487353 0.203122 0.5
92 1 0.561663 0.208413 0.5
93 1 0.60497 0.189634 0.5
94 1 0.662732 0.188073 0.5
95 1 0.705613 0.189979 0.5
96 1 0.753864 0.209892 0.5
97 1 0.789861 0.203218 0.5
98 1 0.856361 0.202251 0.5
99 1 0.891165 0.209789 0.5
100 1 0.937687 0.213254 0.5
101 1 0.000691174 0.251982 0.5
102 1 0.0581503 0.236578 0.5
103 1 0.0949871 0.246133 0.5
104 1 0.138009 0.258918 0.5
105 1 0.202454 0.241883 0.5
106 1 0.237184 0.255341 0.5
107 1 0.292546 0.239972 0.5
108 1 0.344456 0.263001 0.5
109 1 0.399777 0.255551 0.5
110 1 0.44366 0.259443 0.5
111 1 0.493143 0.23873 0.5
112 1 0.554503 0.255357 0.5
113 1 0.605659 0.255629 0.5
114 1 0.654001 0.26058 0.5
115 1 0.697761 0.261326 0.5
116 1 0.736904 0.253105 0.5
117 1 0.806255 0.248122 0.5
118 1 0.860433 0.254168 0.5
119 1 0.910644 0.245766 0.5
120 1 0.953986 0.261759 0.5
121 1 0.98994 0.292894 0.5
122 1 0.0402605 0.311555 0.5
123 1 0.108454 0.292013 0.5
124 1 0.14602 0.296801 0.5
125 1 0.213035 0.308853 0.5
126 1 0.238445 0.304417 0.5
127 1 0.297232 0.304567 0.5
128 1 0.344076 0.309271 0.5
129 1 0.404748 0.311808 0.5
130 1 0.451745 0.297736 0.5
131 1 0.503025 0.299197 0.5
132 1 0.563313 0.313114 0.5
133 1 0.601776 0.293464 0.5
134 1 0.653005 0.293377 0.5
135 1 0.708084 0.306841 0.5
136 1 0.7392 0.300029 0.5
137 1 0.793691 0.289088 0.5
138 1 0.853002 0.297997 0.5
139 1 0.907457 0.305739 0.5
140 1 0.949248 0.288925 0.5
141 1 0.00965143 0.350689 0.5
142 1 0.0528956 0.358634 0.5
143 1 0.111663 0.350507 0.5
144 1 0.143601 0.343695 0.5
145 1 0.195122 0.358745 0.5
146 1 0.261915 0.346739 0.5
147 1 0.290865 0.360016 0.5
148 1 0.33891 0.342388 0.5
149 1 0.388947 0.340915 0.5
150 1 0.445865 0.360195 0.5
151 1 0.492383 0.354259 0.5
152 1 0.56211 0.352339 0.5
153 1 0.588525 0.343744 0.5
154 1 0.645742 0.356558 0.5
155 1 0.694696 0.361813 0.5
156 1 0.757892 0.349584 0.5
157 1 0.805911 0.348568 0.5
158 1 0.853368 0.358705 0.5
159 1 0.895757 0.343017 0.5
160 1 0.939444 0.350688 0.5
161 1 0.00635635 0.407805 0.5
162 1 0.0585189 0.40746 0.5
163 1 0.0893195 0.390154 0.5
164 1 0.151685 0.412099 0.5
165 1 0.20536 0.387604 0.5
166 1 0.247753 0.387639 0.5
167 1 0.307348 0.405179 0.5
168 1 0.342168 0.399181 0.5
169 1 0.409578 0.394335 0.5
170 1 0.445745 0.392127 0.5
171 1 0.498706 0.399691 0.5
172 1 0.559348 0.38892 0.5
173 1 0.607046 0.403911 0.5
174 1 0.649804 0.405646 0.5
175 1 0.687805 0.399202 0.5
176 1 0.760045 0.389265 0.5
177 1 0.804716 0.399153 0.5
178 1 0.846814 0.412832 0.5
179 1 0.89215 0.412583 0.5
180 1 0.955447 0.407427 0.5
181 1 0.986614 0.44191 0.5
182 1 0.0636036 0.460176 0.5
183 1 0.087892 0.457167 0.5
184 1 0.142459 0.436847 0.5
185 1 0.202118 0.451549 0.5
186 1 0.25789 0.439464 0.5
187 1 0.295988 0.460885 0.5
188 1 0.351787 0.438691 0.5
189 1 0.390236 0.457274 0.5
190 1 0.454109 0.443348 0.5
191 1 0.504561 0.449608 0.5
192 1 0.536493 0.440036 0.5
193 1 0.612907 0.436487 0.5
194 1 0.659641 0.44166 0.5
195 1 0.698267 0.443218 0.5
196 1 0.739433 0.458817 0.5
197 1 0.789582 0.446869 0.5
198 1 0.862713 0.442732 0.5
199 1 0.891816 0.461983 0.5
200 1 0.956189 0.44073 0.5
201 1 0.992682 0.489708 0.5
202 1 0.0478812 0.494755 0.5
203 1 0.0984162 0.507702 0.5
204 1 0.157915 0.500838 0.5
205 1 0.209688 0.492236 0.5
206 1 0.245427 0.511818 0.5
207 1 0.303864 0.49695 0.5
208 1 0.342747 0.500676 0.5
209 1 0.399727 0.494886 0.5
210 1 0.457357 0.486168 0.5
211 1 0.49835 0.491436 0.5
212 1 0.556291 0.491771 0.5
213 1 0.596246 0.496453 0.5
214 1 0.644031 0.501961 0.5
215 1 0.712146 0.497151 0.5
216 1 0.740789 0.508322 0.5
217 1 0.803275 0.505466 0.5
218 1 0.844287 0.486405 0.5
219 1 0.907977 0.487988 0.5
220 1 0.946748 0.499704 0.5
221 1 0.992797 0.543859 0.5
222 1 0.0533728 0.553905 0.5
223 1 0.0934573 0.560989 0.5
224 1 0.15951 0.556132 0.5
225 1 0.19752 0.559418 0.5
226 1 0.258756 0.544964 0.5
227 1 0.301491 0.554048 0.5
228 1 0.357237 0.544824 0.5
229 1 0.393092 0.550506 0.5
230 1 0.460137 0.558293 0.5
231 1 0.493214 0.546688 0.5
232 1 0.53684 0.556876 0.5
233 1 0.611597 0.553999 0.5
234 1 0.636474 0.554398 0.5
235 1 0.699222 0.556887 0.5
236 1 0.74208 0.554915 0.5
237 1 0.804313 0.556258 0.5
238 1 0.846068 0.540752 0.5
239 1 0.896475 0.538817 0.5
240 1 0.954832 0.560019 0.5
241 1 0.00808793 0.58829 0.5
242 1 0.038623 0.588872 0.5
243 1 0.105124 0.587222 0.5
244 1 0.144835 0.598736 0.5
245 1 0.200289 0.60675 0.5
246 1 0.24506 0.595386 0.5
247 1 0.303546 0.589011 0.5
248 1 0.347432 0.612072 0.5
249 1 0.3874 0.612215 0.5
250 1 0.445807 0.610998 0.5
251 1 0.490043 0.610087 0.5
252 1 0.559372 0.590147 0.5
253 1 0.592485 0.601962 0.5
254 1 0.659795 0.61132 0.5
255 1 0.700204 0.592722 0.5
256 1 0.749367 0.592269 0.5
257 1 0.81203 0.608921 0.5
258 1 0.846075 0.594574 0.5
259 1 0.898981 0.595078 0.5
260 1 0.944635 0.601766 0.5
261 1 0.00853829 0.640691 0.5
262 1 0.0502419 0.651784 0.5
263 1 0.10692 0.652284 0.5
264 1 0.150328 0.659178 0.5
265 1 0.210857 0.651138 0.5
266 1 0.242102 0.648968 0.5
267 1 0.312192 0.657931 0.5
268 1 0.361099 0.661829 0.5
269 1 0.410641 0.656176 0.5
270 1 0.454538 0.63871 0.5
271 1 0.496487 0.644001 0.5
272 1 0.540131 0.662364 0.5
273 1 0.586353 0.644117 0.5
274 1 0.663168 0.647242 0.5
275 1 0.693344 0.636359 0.5
276 1 0.742107 0.649538 0.5
277 1 0.813471 0.655804 0.5
278 1 0.845699 0.65015 0.5
279 1 0.898109 0.640004 0.5
280 1 0.953229 0.643335 0.5
281 1 0.990352 0.709298 0.5
282 1 0.0551575 0.701538 0.5
283 1 0.0963574 0.695486 0.5
284 1 0.138606 0.707278 0.5
285 1 0.195881 0.706975 0.5
286 1 0.238092 0.708643 0.5
287 1 0.301634 0.711992 0.5
288 1 0.342413 0.687724 0.5
289 1 0.407375 0.688438 0.5
290 1 0.455935 0.691931 0.5
291 1 0.503706 0.704922 0.5
292 1 0.537556 0.693327 0.5
293 1 0.604227 0.708982 0.5
294 1 0.651374 0.690294 0.5
295 1 0.687184 0.702788 0.5
296 1 0.761957 0.696285 0.5
297 1 0.811991 0.712601 0.5
298 1 0.853068 0.705952 0.5
299 1 0.887007 0.70681 0.5
300 1 0.950534 0.70768 0.5
301 1 0.0114936 0.741641 0.5
302 1 0.0422717 0.738762 0.5
303 1 0.0986655 0.750715 0.5
304 1 0.143023 0.743993 0.5
305 1 0.203977 0.746758 0.5
306 1 0.251312 0.756546 0.5
307 1 0.298146 0.756529 0.5
308 1 0.345264 0.761418 0.5
309 1 0.388265 0.746319 0.5
310 1 0.461625 0.739485 0.5
311 1 0.490932 0.748172 0.5
312 1 0.55899 0.762883 0.5
313 1 0.610193 0.75529 0.5
314 1 0.637313 0.745529 0.5
315 1 0.708716 0.748327 0.5
316 1 0.757072 0.73649 0.5
317 1 0.813149 0.758328 0.5
318 1 0.839003 0.742834 0.5
319 1 0.90109 0.736516 0.5
320 1 0.955729 0.758475 0.5
321 1 0.993267 0.81308 0.5
322 1 0.0466094 0.805524 0.5
323 1 0.109989 0.79737 0.5
324 1 0.157722 0.804889 0.5
325 1 0.186975 0.809499 0.5
326 1 0.247214 0.792704 0.5
327 1 0.290377 0.793446 0.5
328 1 0.346674 0.799098 0.5
329 1 0.405445 0.787437 0.5
330 1 0.437022 0.799505 0.5
331 1 0.504759 0.808067 0.5
332 1 0.558575 0.789128 0.5
333 1 0.603007 0.808957 0.5
334 1 0.647469 0.811527 0.5
335 1 0.687203 0.797013 0.5
336 1 0.736418 0.80074 0.5
337 1 0.810989 0.798711 0.5
338 1 0.855449 0.791625 0.5
339 1 0.904566 0.787788 0.5
340 1 0.949288 0.811388 0.5
341 1 0.00490301 0.839794 0.5
342 1 0.0446563 0.848383 0.5
343 1 0.103938 0.855079 0.5
344 1 0.147566 0.836124 0.5
345 1 0.207269 0.859774 0.5
346 1 0.241053 0.846634 0.5
347 1 0.301407 0.838069 0.5
348 1 0.341975 0.858815 0.5
349 1 0.400893 0.857196 0.5
350 1 0.452324 0.861783 0.5
351 1 0.507974 0.862905 0.5
352 1 0.558812 0.853686 0.5
353 1 0.611905 0.850507 0.5
354 1 0.648931 0.859917 0.5
355 1 0.707569 0.851159 0.5
356 1 0.759613 0.850254 0.5
357 1 0.797377 0.842708 0.5
358 1 0.844568 0.856507 0.5
359 1 0.888282 0.841576 0.5
360 1 0.960284 0.846595 0.5
361 1 0.0119115 0.888407 0.5
362 1 0.0517887 0.89416 0.5
363 1 0.101479 0.894101 0.5
364 1 0.141265 0.896471 0.5
365 1 0.200776 0.906096 0.5
366 1 0.254655 0.900765 0.5
367 1 0.300628 0.894864 0.5
368 1 0.359061 0.913338 0.5
369 1 0.412538 0.887794 0.5
370 1 0.446584 0.89415 0.5
371 1 0.498695 0.888849 0.5
372 1 0.553142 0.901428 0.5
373 1 0.589463 0.899166 0.5
374 1 0.64015 0.892986 0.5
375 1 0.693917 0.906212 0.5
376 1 0.748954 0.90381 0.5
377 1 0.811079 0.900651 0.5
378 1 0.85575 0.912722 0.5
379 1 0.908704 0.887604 0.5
380 1 0.957918 0.90746 0.5
381 1 0.993818 0.959248 0.5
382 1 0.0474765 0.946066 0.5
383 1 0.109271 0.940621 0.5
384 1 0.156355 0.942406 0.5
385 1 0.212344 0.937208 0.5
386 1 0.263021 0.945014 0.5
387 1 0.311173 0.936477 0.5
388 1 0.354496 0.94931 0.5
389 1 0.397175 0.955382 0.5
390 1 0.438854 0.952674 0.5
391 1 0.508822 0.940606 0.5
392 1 0.54054 0.948021 0.5
393 1 0.587527 0.946716 0.5
394 1 0.647597 0.958182 0.5
395 1 0.691782 0.96263 0.5
396 1 0.758921 0.960715 0.5
397 1 0.798396 0.949067 0.5
398 1 0.853416 0.954772 0.5
399 1 0.894637 0.947849 0.5
400 1 0.959776 0.948513 0.5
ITEM: TIMESTEP
200
ITEM: NUMBER OF ATOMS
400
ITEM: BOX BOUNDS pp pp pp
0.0000000000000000e+00 6.3245553203367592e+01
0.0000000000000000e+00 6.3245553203367592e+01
-3.1622776601683800e-01 3.1622776601683800e-01
ITEM: ATOMS id type xs ys zs
1 1 0.982652 0.990738 0.5
2 1 0.051288 0.0184505 0.5
3 1 0.0870772 0.985733 0.5
4 1 0.159353 0.0268012 0.5
5 1 0.210716 0.985161 0.5
6 1 0.260972 0.0238983 0.5
7 1 0.309515 0.992491 0.5
8 1 0.340423 0.996064 0.5
9 1 0.418979 0.00878334 0.5
10 1 0.431593 0.998569 0.5
11 1 0.476795 0.976634 0.5
12 1 0.529722 0.999915 0.5
13 1 0.584035 0.978087 0.5
14 1 0.637118 0.0236399 0.5
15 1 0.682516 0.991006 0.5
16 1 0.75998 0.00617824 0.5
17 1 0.78035 0.978778 0.5
18 1 0.867775 0.986915 0.5
19 1 0.903716 0.0223949 0.5
20 1 0.951675 0.0238772 0.5
21 1 0.0236124 0.0363008 0.5
22 1 0.0412398 0.0308602 0.5
23 1 0.116125 0.0592278 0.5
24 1 0.158589 0.0554481 0.5
25 1 0.213986 0.0346063 0.5
26 1 0.261001 0.0418324 0.5
27 1 0.276546 0.0355887 0.5
28 1 0.34019 0.0618391 0.5
29 1 0.405171 0.0491114 0.5
30 1 0.467784 0.0365921 0.5
31 1 0.50966 0.0617609 0.5
32 1 0.569248 0.0561231 0.5
33 1 0.59555 0.0468615 0.5
34 1 0.637876 0.0444839 0.5
35 1 0.714387 0.0569247 0.5
36 1 0.747643 0.0617733 0.5
37 1 0.792439 0.0381461 0.5
38 1 0.843691 0.0436529 0.5
39 1 0.884238 0.0706466 0.5
40 1 0.943656 0.0431531 0.5
41 1 0.0122397 0.0817287 0.5
42 1 0.044649 0.0957459 0.5
43 1 0.125299 0.0978619 0.5
44 1 0.137048 0.124181 0.5
45 1 0.226959 0.103172 0.5
46 1 0.233095 0.121089 0.5
47 1 0.292408 0.1247 0.5
48 1 0.343596 0.0813157 0.5
49 1 0.41457 0.103215 0.5
50 1 0.462339 0.0971889 0.5
51 1 0.523117 0.125394 0.5
52 1 0.526938 0.0976166 0.5
53 1 0.626459 0.102777 0.5
54 1 0.643513 0.115401 0.5
55 1 0.702468 0.0808552 0.5
56 1 0.772498 0.0791216 0.5
57 1 0.786393 0.121418 0.5
58 1 0.845615 0.100976 0.5
59 1 0.903287 0.0867257 0.5
60 1 0.936654 0.0940594 0.5
61 1 0.0118291 0.140777 0.5
62 1 0.0629091 0.165953 0.5
63 1 0.0912677 0.133723 0.5
64 1 0.124799 0.167869 0.5
65 1 0.20747 0.165939 0.5
66 1 0.276359 0.145446 0.5
67 1 0.306463 0.145867 0.5
68 1 0.357414 0.174383 0.5
69 1 0.413497 0.132493 0.5
70 1 0.428354 0.126578 0.5
71 1 0.494484 0.123064 0.5
72 1 0.561208 0.148317 0.5
73 1 0.578371 0.141214 0.5
74 1 0.65291 0.144739 0.5
75 1 0.689141 0.15885 0.5
76 1 0.735135 0.146871 0.5
77 1 0.791007 0.143358 0.5
78 1 0.827944 0.150661 0.5
79 1 0.897787 0.126734 0.5
80 1 0.970231 0.166787 0.5
81 1 0.975714 0.22197 0.5
82 1 0.0471751 0.171899 0.5
83 1 0.0858041 0.215318 0.5
84 1 0.151757 0.225653 0.5
85 1 0.180331 0.172016 0.5
86 1 0.222617 0.200552 0.5
87 1 0.296574 0.218104 0.5
88 1 0.359 0.192366 0.5
89 1 0.40168 0.18107 0.5
90 1 0.426078 0.196273 0.5
91 1 0.474853 0.206731 0.5
92 1 0.573326 0.216825 0.5
93 1 0.609941 0.179269 0.5
94 1 0.675606 0.17599 0.5
95 1 0.711089 0.179734 0.5
96 1 0.758111 0.219657 0.5
97 1 0.779338 0.206563 0.5
98 1 0.863215 0.204701 0.5
99 1 0.881837 0.21938 0.5
100 1 0.925158 0.226731 0.5
101 1 0.00137487 0.253977 0.5
102 1 0.0667323 0.223109 0.5
103 1 0.0897503 0.241948 0.5
104 1 0.125838 0.268365 0.5
105 1 0.205104 0.233882 0.5
106 1 0.224174 0.260565 0.5
107 1 0.284114 0.230393 0.5
108 1 0.338912 0.276002 0.5
109 1 0.399556 0.261102 0.5
110 1 0.437371 0.26904 0.5
111 1 0.486139 0.226974 0.5
112 1 0.559005 0.260713 0.5
113 1 0.611268 0.261533 0.5
114 1 0.658099 0.271092 0.5
115 1 0.695624 0.272614 0.5
116 1 0.723699 0.256248 0.5
117 1 0.812511 0.246244 0.5
118 1 0.870867 0.258336 0.5
119 1 0.921503 0.24131 0.5
120 1 0.962084 0.267107 0.5
121 1 0.979717 0.285693 0.5
122 1 0.0305036 0.323144 0.5
123 1 0.117438 0.283742 0.5
124 1 0.141691 0.293356 0.5
125 1 0.216223 0.322729 0.5
126 1 0.236737 0.303811 0.5
127 1 0.294464 0.309135 0.5
128 1 0.337768 0.319697 0.5
129 1 0.409155 0.324011 0.5
130 1 0.453436 0.295318 0.5
131 1 0.506049 0.298393 0.5
132 1 0.575544 0.321524 0.5
133 1 0.603601 0.286651 0.5
134 1 0.655923 0.286823 0.5
135 1 0.717436 0.313222 0.5
136 1 0.727132 0.300519 0.5
137 1 0.787382 0.278177 0.5
138 1 0.856004 0.295993 0.5
139 1 0.914851 0.311606 0.5
140 1 0.944554 0.284342 0.5
141 1 0.0193201 0.351345 0.5
142 1 0.0558625 0.367317 0.5
143 1 0.124601 0.350428 0.5
144 1 0.135928 0.337977 0.5
145 1 0.191441 0.368937 0.5
146 1 0.274522 0.344074 0.5
147 1 0.281032 0.369436 0.5
148 1 0.328204 0.33362 0.5
149 1 0.378236 0.331436 0.5
150 1 0.441792 0.368518 0.5
151 1 0.484766 0.358518 0.5
152 1 0.574549 0.356597 0.5
153 1 0.577733 0.340712 0.5
154 1 0.641484 0.363116 0.5
155 1 0.689316 0.373867 0.5
156 1 0.765798 0.349322 0.5
157 1 0.811823 0.347136 0.5
158 1 0.856735 0.36741 0.5
159 1 0.891578 0.335907 0.5
160 1 0.928888 0.351375 0.5
161 1 0.0126746 0.41566 0.5
162 1 0.0672618 0.41474 0.5
163 1 0.0783436 0.38044 0.5
164 1 0.155375 0.424266 0.5
165 1 0.20956 0.373762 0.5
166 1 0.245476 0.375275 0.5
167 1 0.315311 0.410151 0.5
168 1 0.333751 0.398643 0.5
169 1 0.419738 0.38857 0.5
170 1 0.440848 0.386226 0.5
171 1 0.497412 0.399382 0.5
172 1 0.568765 0.377401 0.5
173 1 0.614588 0.409043 0.5
174 1 0.649823 0.411521 0.5
175 1 0.675477 0.398234 0.5
176 1 0.770075 0.378377 0.5
177 1 0.809433 0.398305 0.5
178 1 0.843903 0.425998 0.5
179 1 0.8849 0.424472 0.5
180 1 0.961203 0.415218 0.5
181 1 0.977685 0.434524 0.5
182 1 0.0628886 0.474947 0.5
183 1 0.0899178 0.459978 0.5
184 1 0.132913 0.423626 0.5
185 1 0.204256 0.453156 0.5
186 1 0.265779 0.428929 0.5
187 1 0.292097 0.47209 0.5
188 1 0.353542 0.427308 0.5
189 1 0.380538 0.464709 0.5
190 1 0.458222 0.43672 0.5
191 1 0.5099 0.448771 0.5
192 1 0.522199 0.430549 0.5
193 1 0.62542 0.421712 0.5
194 1 0.669406 0.43308 0.5
195 1 0.696302 0.436419 0.5
196 1 0.728834 0.467721 0.5
197 1 0.779163 0.443737 0.5
198 1 0.874759 0.436005 0.5
199 1 0.884048 0.474384 0.5
200 1 0.957651 0.430341 0.5
201 1 0.985364 0.479417 0.5
202 1 0.0459473 0.489272 0.5
203 1 0.0968323 0.515404 0.5
204 1 0.165829 0.501676 0.5
205 1 0.219357 0.484414 0.5
206 1 0.241038 0.52392 0.5
207 1 0.307799 0.493612 0.5
208 1 0.335303 0.50132 0.5
209 1 0.399388 0.489612 0.5
210 1 0.46478 0.472329 0.5
211 1 0.496642 0.482823 0.5
212 1 0.5627 0.483565 0.5
213 1 0.592372 0.492883 0.5
214 1 0.638061 0.503922 0.5
215 1 0.725544 0.495287 0.5
216 1 0.730357 0.515573 0.5
217 1 0.80655 0.510933 0.5
218 1 0.838575 0.472809 0.5
219 1 0.915394 0.475408 0.5
220 1 0.943433 0.499375 0.5
221 1 0.985595 0.537718 0.5
222 1 0.0567305 0.55798 0.5
223 1 0.0886928 0.573648 0.5
224 1 0.16929 0.562304 0.5
225 1 0.19477 0.568795 0.5
226 1 0.267329 0.539644 0.5
227 1 0.303087 0.558955 0.5
228 1 0.364929 0.539781 0.5
229 1 0.38573 0.55088 0.5
230 1 0.470667 0.566348 0.5
231 1 0.486035 0.543614 0.5
232 1 0.52368 0.563751 0.5
233 1 0.607864 0.557393 0.5
234 1 0.638278 0.559401 0.5
235 1 0.698505 0.564423 0.5
236 1 0.734211 0.560066 0.5
237 1 0.808626 0.562516 0.5
238 1 0.842137 0.531505 0.5
239 1 0.892951 0.527634 0.5
240 1 0.959663 0.570039 0.5
241 1 0.0115146 0.576253 0.5
242 1 0.0320001 0.577927 0.5
243 1 0.108424 0.572767 0.5
244 1 0.139637 0.597455 0.5
245 1 0.200579 0.6135 0.5
246 1 0.24012 0.590771 0.5
247 1 0.306988 0.577163 0.5
248 1 0.345008 0.624146 0.5
249 1 0.374656 0.624429 0.5
250 1 0.441468 0.623186 0.5
251 1 0.480175 0.621049 0.5
252 1 0.569119 0.580522 0.5
253 1 0.584588 0.603722 0.5
254 1 0.670084 0.623453 0.5
255 1 0.700373 0.584793 0.5
256 1 0.748657 0.584304 0.5
257 1 0.824256 0.617718 0.5
258 1 0.841954 0.589274 0.5
259 1 0.897963 0.590157 0.5
260 1 0.93928 0.603551 0.5
261 1 0.0170766 0.631383 0.5
262 1 0.0504839 0.653569 0.5
263 1 0.113841 0.654569 0.5
264 1 0.150656 0.668356 0.5
265 1 0.219105 0.653155 0.5
266 1 0.236812 0.647058 0.5
267 1 0.324096 0.665643 0.5
268 1 0.371816 0.674029 0.5
269 1 0.42156 0.662402 0.5
270 1 0.459469 0.626141 0.5
271 1 0.49264 0.637218 0.5
272 1 0.531374 0.672107 0.5
273 1 0.572712 0.638207 0.5
274 1 0.677163 0.643192 0.5
275 1 0.685367 0.623198 0.5
276 1 0.734214 0.649077 0.5
277 1 0.82817 0.661196 0.5
278 1 0.840169 0.65071 0.5
279 1 0.896217 0.630009 0.5
280 1 0.956449 0.636648 0.5
281 1 0.980615 0.71866 0.5
282 1 0.0603134 0.703163 0.5
283 1 0.09266 0.690986 0.5
284 1 0.127297 0.714943 0.5
285 1 0.191837 0.71404 0.5
286 1 0.226127 0.717299 0.5
287 1 0.303268 0.723985 0.5
288 1 0.335495 0.675296 0.5
289 1 0.414472 0.676826 0.5
290 1 0.461871 0.683862 0.5
291 1 0.50773 0.70966 0.5
292 1 0.523681 0.689458 0.5
293 1 0.608487 0.718008 0.5
294 1 0.65292 0.680682 0.5
295 1 0.674196 0.705482 0.5
296 1 0.773893 0.692674 0.5
297 1 0.822847 0.722338 0.5
298 1 0.857164 0.712072 0.5
299 1 0.873279 0.714044 0.5
300 1 0.951217 0.71537 0.5
301 1 0.0200895 0.734478 0.5
302 1 0.0374393 0.726152 0.5
303 1 0.097331 0.751429 0.5
304 1 0.135961 0.737599 0.5
305 1 0.207936 0.743413 0.5
306 1 0.252524 0.763576 0.5
307 1 0.296203 0.763309 0.5
308 1 0.340549 0.773166 0.5
309 1 0.37653 0.742637 0.5
310 1 0.474793 0.729825 0.5
311 1 0.480322 0.745491 0.5
312 1 0.568533 0.762958 0.5
313 1 0.622123 0.759647 0.5
314 1 0.622857 0.741945 0.5
315 1 0.717431 0.746654 0.5
316 1 0.764166 0.722876 0.5
317 1 0.827 0.766007 0.5
318 1 0.828534 0.73919 0.5
319 1 0.901784 0.722543 0.5
320 1 0.961458 0.766951 0.5
321 1 0.988087 0.827849 0.5
322 1 0.0432163 0.811074 0.5
323 1 0.119978 0.794741 0.5
324 1 0.161307 0.808166 0.5
325 1 0.177471 0.821454 0.5
326 1 0.244551 0.784926 0.5
327 1 0.28082 0.786638 0.5
328 1 0.343326 0.797866 0.5
329 1 0.411401 0.775226 0.5
330 1 0.423531 0.798658 0.5
331 1 0.509518 0.816133 0.5
332 1 0.566596 0.791065 0.5
333 1 0.606023 0.817933 0.5
334 1 0.644934 0.823059 0.5
335 1 0.674405 0.794025 0.5
336 1 0.722836 0.801479 0.5
337 1 0.821989 0.797311 0.5
338 1 0.860897 0.78325 0.5
339 1 0.909133 0.775576 0.5
340 1 0.948709 0.823033 0.5
341 1 0.00821242 0.828036 0.5
342 1 0.0392354 0.846723 0.5
343 1 0.107855 0.860354 0.5
344 1 0.145747 0.821402 0.5
345 1 0.214793 0.86939 0.5
346 1 0.231852 0.843425 0.5
347 1 0.302814 0.826138 0.5
348 1 0.333949 0.867629 0.5
349 1 0.402285 0.865075 0.5
350 1 0.454109 0.874841 0.5
351 1 0.516766 0.87674 0.5
352 1 0.567623 0.857371 0.5
353 1 0.624005 0.851084 0.5
354 1 0.647319 0.870427 0.5
355 1 0.715138 0.852318 0.5
356 1 0.769425 0.850442 0.5
357 1 0.794555 0.835483 0.5
358 1 0.839135 0.863013 0.5
359 1 0.876565 0.833153 0.5
360 1 0.970549 0.842826 0.5
361 1 0.0239399 0.87683 0.5
362 1 0.0534667 0.888293 0.5
363 1 0.103126 0.888021 0.5
364 1 0.132383 0.892928 0.5
365 1 0.201997 0.912826 0.5
366 1 0.259309 0.901529 0.5
367 1 0.301255 0.889728 0.5
368 1 0.368005 0.927169 0.5
369 1 0.42538 0.875154 0.5
370 1 0.442905 0.886776 0.5
371 1 0.496572 0.876769 0.5
372 1 0.556804 0.902795 0.5
373 1 0.578406 0.898393 0.5
374 1 0.630646 0.885288 0.5
375 1 0.687835 0.912424 0.5
376 1 0.747909 0.907619 0.5
377 1 0.822157 0.901301 0.5
378 1 0.861503 0.925497 0.5
379 1 0.917407 0.875209 0.5
380 1 0.965843 0.915006 0.5
381 1 0.987216 0.968801 0.5
382 1 0.0449529 0.942133 0.5
383 1 0.118543 0.931243 0.5
384 1 0.162711 0.934812 0.5
385 1 0.224243 0.923783 0.5
386 1 0.276042 0.940028 0.5
387 1 0.322346 0.922954 0.5
388 1 0.359124 0.948131 0.5