ITEM: TIMESTEP
1000
ITEM: NUMBER OF ATOMS
400
ITEM: BOX BOUNDS pp pp pp
0.0000000000000000e+00 6.3245553203367592e+01
0.0000000000000000e+00 6.3245553203367592e+01
-3.1622776601683800e-01 3.1622776601683800e-01
ITEM: ATOMS id type x y vx fx 
1 1 56.2415 1.67885 -0.218839 -0.356485 
2 1 8.83534 62.7466 1.01049 -15.7866 
3 1 2.48207 58.9904 0.445024 -2.20056 
4 1 12.7318 3.13812 0.71304 0.175893 
5 1 17.1798 57.9548 0.904194 -1.3015 
6 1 13.0922 1.58721 -0.810111 -0.17091 
7 1 13.8695 62.4746 -1.17404 -0.024369 
8 1 25.8614 62.1062 -0.495255 0.0375627 
9 1 27.5322 1.22352 0.66435 -0.652967 
10 1 25.9134 59.3997 0.212076 -0.588792 
11 1 25.8032 55.1112 -0.459256 0 
12 1 30.2712 63.1011 -0.230171 1.10825 
13 1 34.1165 56.4774 -2.12528 0.369481 
14 1 38.8532 62.588 0.3566 -0.0569005 
15 1 38.3791 5.47223 -0.0341104 -1.02105 
16 1 48.0462 61.4927 -0.226554 0.114574 
17 1 55.6656 0.446675 0.497338 1.19082 
18 1 58.5118 62.1124 0.428105 -0.913168 
19 1 55.3584 2.35543 0.435984 -1.26339 
20 1 58.9366 2.06602 0.276933 0 
21 1 0.667828 2.71808 0.0300359 0.0238233 
22 1 7.53771 62.6543 1.73547 2.33959 
23 1 12.6984 6.85312 1.79166 1.61902 
24 1 12.5593 5.31638 0.567668 0.096299 
25 1 9.60089 62.0804 -1.39762 13.4471 
26 1 19.3467 61.3541 -0.725001 1.22362 
27 1 23.3214 3.48355 -1.03102 0.372687 
28 1 16.6215 -0.00303759 -1.33668 0 
29 1 26.0428 1.88791 0.725554 0.419001 
30 1 33.3576 2.28033 0.819171 0.0513089 
31 1 35.3352 3.25127 -0.126264 0.48684 
32 1 36.9929 6.20141 -1.7816 0.822056 
33 1 36.1347 1.96158 -0.76616 -0.570854 
34 1 40.01 9.39264 0.515843 0 
35 1 46.5833 4.2644 0.762154 0 
36 1 49.1716 5.97466 0.593181 0 
37 1 52.6574 3.03688 0.892642 0.805862 
38 1 53.0606 1.4401 -1.78831 0.224495 
39 1 53.4422 10.7118 -0.755776 0.484944 
40 1 61.0998 4.6763 1.07618 0 
41 1 4.35866 1.51768 -0.26936 0.203315 
42 1 1.3631 4.87258 0.605612 3.64192 
43 1 9.24474 10.6376 -0.325983 -0.0426089 
44 1 5.25321 13.4389 -1.18043 1.24356 
45 1 21.5589 11.5635 1.87353 0.185277 
46 1 12.483 7.88116 -0.0526992 -1.71166 
47 1 22.2173 5.4481 1.24115 0.483191 
48 1 19.2563 7.62301 -1.04796 -0.282565 
49 1 23.2912 6.68622 -0.709796 -0.213209 
50 1 26.9014 3.51494 0.498277 -0.134246 
51 1 33.6232 9.72568 -0.206444 0.0115087 
52 1 31.5709 5.82322 0.0161606 1.62026 
53 1 42.3275 7.85047 -1.10344 1.69045 
54 1 42.7068 5.97697 1.2904 0.464668 
55 1 46.3389 0.543153 0.575156 -0.0825765 
56 1 49.0418 0.207948 -2.15493 -0.0429205 
57 1 49.4048 8.60664 -0.341407 0.0582399 
58 1 52.8368 6.76843 0.0787235 0.113104 
59 1 54.2616 2.67213 0.2398 0.0139661 
60 1 56.2042 4.04792 -1.81178 -0.162039 
61 1 1.16093 5.86596 -0.528252 -3.66574 
62 1 3.69865 12.0845 0.0745212 0.858838 
63 1 5.06314 2.39926 1.45876 -0.203315 
64 1 8.34891 15.1317 1.59008 0.0107123 
65 1 12.3721 10.1171 0.751088 0.00415336 
66 1 18.6053 14.0193 -0.691903 0.00203023 
67 1 18.5185 9.07022 -0.981583 0.325449 
68 1 21.4933 8.58735 -1.30379 0.0447132 
69 1 23.6775 8.19455 0.83523 -3.74825 
70 1 33.8311 7.60542 1.77814 -0.78048 
71 1 32.6373 6.63212 0.166667 -0.851285 
72 1 37.8383 16.0191 0.893233 0 
73 1 38.2409 4.16372 1.96891 0.198995 
74 1 43.3354 8.46031 0.543178 -0.103941 
75 1 44.237 1.27334 -0.217574 0.0825765 
76 1 44.0242 4.98 -0.334406 -0.513646 
77 1 45.8086 11.1148 -0.643353 -0.0189625 
78 1 51.4645 9.67325 1.47888 0.0661813 
79 1 53.516 8.48872 -1.34676 -0.165101 
80 1 61.2324 9.09793 -2.20838 0 
81 1 61.6521 18.2509 0.129048 -12.9955 
82 1 4.1222 6.28423 0.150076 0 
83 1 7.68216 8.90899 -1.71005 0.0426089 
84 1 6.12525 20.6875 -1.77325 0 
85 1 8.03042 2.75267 -0.552311 0 
86 1 13.7525 12.6726 0.466371 -0.115308 
87 1 22.6438 15.5472 0.282957 0 
88 1 25.5124 18.552 0.442456 0.107685 
89 1 24.1792 9.12396 0.0524285 3.68965 
90 1 25.5811 10.2908 -0.273064 -0.259751 
91 1 22.842 12.9432 -0.60497 -0.185277 
92 1 41.627 13.0942 1.57594 1.41404 
93 1 36.6876 11.6162 -0.980353 0 
94 1 42.8591 12.4096 -0.225052 -1.41404 
95 1 44.6694 8.91227 -1.52131 -1.51857 
96 1 48.8039 13.6272 0.560025 1.22599 
97 1 45.7651 15.3799 0.230906 -0.646378 
98 1 59.6317 14.3813 1.33503 0 
99 1 55.3055 14.8435 0.440228 0 
100 1 53.7327 11.8942 -1.40968 -0.557369 
101 1 62.8035 16.2108 0.159541 0.47339 
102 1 2.57513 12.0731 0.641649 0.246045 
103 1 4.18708 13.1592 1.78084 -2.34844 
104 1 8.51769 17.2185 -0.137854 0.482563 
105 1 10.0189 17.8581 -1.7411 -0.120513 
106 1 10.7458 19.1895 0.152431 -0.472809 
107 1 11.7341 13.3271 -1.00516 0.115308 
108 1 19.2786 19.3033 -0.965064 -3.37465 
109 1 25.8902 20.1855 0.493569 -0.321386 
110 1 26.0375 21.9541 -0.399854 -0.15963 
111 1 28.7507 9.54951 -0.496393 0 
112 1 33.3065 15.0938 -1.01337 0 
113 1 40.4774 18.9221 -1.67839 -0.501212 
114 1 44.2329 14.8109 0.588837 0.571235 
115 1 44.0055 22.7279 1.54255 0.0500819 
116 1 43.2915 20.0672 1.16641 0.110152 
117 1 49.506 14.7157 -1.44698 -1.22599 
118 1 56.1846 18.8558 0.300203 -0.373696 
119 1 56.1988 22.1675 -0.350016 -1.63648 
120 1 1.26678 16.2964 -0.683068 -0.5139 
121 1 62.6821 18.2218 1.75681 13.0898 
122 1 61.6933 21.7325 -0.225917 -1.38606 
123 1 2.09666 18.9036 -1.87012 -1.5574 
124 1 6.46917 16.9981 -0.542875 0.147445 
125 1 14.0238 15.7089 -0.0987751 0.919748 
126 1 18.2469 18.6607 1.10797 1.80363 
127 1 14.5412 16.8891 -0.551706 -0.919748 
128 1 23.4941 19.7388 0.503394 0.589419 
129 1 24.408 24.2066 -1.11872 0 
130 1 27.3161 16.8273 -0.488178 -0.028533 
131 1 33.5353 18.4739 0.37795 -0.0362484 
132 1 38.9164 19.7352 0.805871 0.408192 
133 1 40.3508 17.7826 0.474862 0.0930196 
134 1 41.2933 22.728 -0.676015 0.032544 
135 1 47.3971 25.8514 0.418153 0 
136 1 42.3395 15.9741 -1.00424 0.0751435 
137 1 48.8185 19.9891 0.186262 -0.167469 
138 1 55.4083 17.4259 -0.163306 0.338498 
139 1 61.8071 20.7057 1.5551 1.35578 
140 1 55.0621 22.2525 0.814171 0.949759 
141 1 2.34969 21.8324 -0.352535 -0.028095 
142 1 1.11291 19.7938 -0.632511 1.53447 
143 1 12.6163 24.9645 1.20836 0 
144 1 12.2814 21.9872 1.30415 0.0164717 
145 1 14.943 28.5781 0.61357 0.0341449 
146 1 15.8035 24.897 -0.450343 -0.552013 
147 1 12.0375 28.4001 -1.35424 -0.231775 
148 1 18.092 20.0516 -0.668857 1.58576 
149 1 18.7023 16.4264 -0.806779 -0.0167732 
150 1 31.1177 19.241 1.24206 0.0959142 
151 1 28.2649 24.6783 0.765203 4.76381 
152 1 45.212 20.9669 1.17066 -0.0396491 
153 1 36.3465 20.6298 -0.0349199 0 
154 1 38.5239 23.4194 -0.294785 0 
155 1 43.1851 25.023 0.456614 -1.60557 
156 1 50.6609 18.2344 0.247401 0 
157 1 54.0177 20.2987 -0.332647 1.58072 
158 1 56.045 27.5957 0.569773 0.414658 
159 1 55.0575 20.8499 -1.0546 -1.37394 
160 1 52.7489 21.7857 -1.76507 0.327258 
161 1 3.57514 30.3824 -0.27979 0.611475 
162 1 9.51925 29.8586 1.72773 -9.77393 
163 1 8.79157 21.5273 1.60523 0 
164 1 12.7676 31.9179 1.05313 0.783727 
165 1 8.1412 27.4235 -1.44069 0 
166 1 13.1122 19.7082 -0.869571 -0.0638702 
167 1 22.6863 30.2768 0.504218 -0.0341023 
168 1 20.5002 24.7326 -0.906781 0 
169 1 27.4797 25.3913 0.888909 -4.76381 
170 1 27.8515 31.1218 -0.14779 0.114095 
171 1 33.4292 20.1525 0.705475 2.28165 
172 1 36.6345 29.0319 0.80446 0.419434 
173 1 38.8783 28.3149 -0.606129 -4.71033 
174 1 37.7698 30.2929 -0.561256 -0.325776 
175 1 41.7721 24.7475 0.0984514 0.928478 
176 1 54.0196 23.3936 -0.559814 -0.168585 
177 1 53.5084 24.4913 -1.51452 0.493601 
178 1 55.151 28.8982 -0.0119522 2.28658 
179 1 61.1656 23.8131 0.275233 -0.787003 
180 1 59.7304 24.4454 -1.62608 0.198793 
181 1 62.8912 29.8614 -1.65982 1.62926 
182 1 0.955534 29.3958 0.55959 -1.62926 
183 1 10.3101 29.1962 0.773094 10.0057 
184 1 6.06776 23.4145 0.49893 0 
185 1 14.969 29.9544 0.602424 -0.0610976 
186 1 16.8954 25.1092 -1.28688 2.27291 
187 1 18.6795 32.1325 -1.14592 0.0297792 
188 1 24.141 21.0965 1.34216 -0.187556 
189 1 22.191 33.6384 0.96487 -0.0623064 
190 1 31.369 26.8437 0.435403 -0.0836348 
191 1 32.5706 22.3702 -0.288164 0.0666669 
192 1 32.6279 20.8834 0.801289 -2.40798 
193 1 41.5161 26.0023 0.560574 0.660209 
194 1 47.2834 21.1973 1.10434 0.0312275 
195 1 43.5669 29.7092 -1.03071 0.242963 
196 1 41.4336 31.6255 -0.808399 -0.872982 
197 1 52.0493 25.348 2.08613 0.476852 
198 1 50.7696 30.6222 -1.04536 -0.763968 
199 1 53.9922 31.6597 0.16214 -0.937865 
200 1 55.9371 23.4011 1.43589 -0.613977 
201 1 58.746 25.0138 -0.354873 0.615737 
202 1 60.4285 30.3094 0.215407 0.045482 
203 1 7.56261 35.7592 1.32651 23.0063 
204 1 14.3615 32.0595 0.686261 -0.635578 
205 1 17.7479 25.9873 0.607706 -1.7209 
206 1 13.5041 36.8413 0.667407 -1.22186 
207 1 19.6949 28.1417 0.512719 1.75365 
208 1 20.6521 28.8626 0.133756 -1.71955 
209 1 24.1854 27.8501 -0.324092 0 
210 1 29.1807 27.2877 -0.395765 0.0836348 
211 1 29.8439 31.0424 -0.472027 -0.18521 
212 1 33.3661 25.3178 -2.47059 0 
213 1 35.7993 31.8586 -0.321132 0.0278901 
214 1 39.949 28.3762 0.803637 4.61667 
215 1 52.4465 31.5036 1.5603 0.705745 
216 1 40.1335 32.4077 -1.83602 0.928997 
217 1 50.044 36.9043 -0.21498 -1.70601 
218 1 45.1876 28.7664 -2.27752 -0.242963 
219 1 56.5137 28.7171 -1.96615 -2.30313 
220 1 57.4317 32.7786 0.33392 -0.0666609 
221 1 57.8018 29.8338 -1.56403 -0.39811 
222 1 6.57653 35.9595 0.331193 -20.7888 
223 1 7.31902 41.937 0.497773 0.449498 
224 1 12.0225 36.9445 -1.67716 1.22186 
225 1 15.095 41.6243 0.853146 -0.0357821 
226 1 15.3586 33.7079 -0.179861 -0.121196 
227 1 19.8642 34.1669 0.310939 0.0228009 
228 1 25.7599 29.9725 0.641244 0.0471874 
229 1 22.0015 35.781 -0.374161 -0.102826 
230 1 29.4645 35.863 0.0657752 0 
231 1 26.8406 33.2677 -0.683256 -0.038628 
232 1 34.0615 36.5193 -0.0948098 0 
233 1 37.0389 33.8989 -0.633164 -0.0278901 
234 1 45.1529 40.592 0.564772 0.358833 
235 1 42.4665 33.4951 -0.839559 0.376296 
236 1 51.0065 35.4239 2.04048 -0.228273 
237 1 48.7624 37.2314 -2.234 2.05737 
238 1 49.7103 31.6206 -0.749706 0.996087 
239 1 60.5661 31.9932 2.0576 -0.221614 
240 1 2.13005 37.5933 0.0762317 1.30322 
241 1 59.6368 33.5564 -0.843311 0.117622 
242 1 3.93322 31.5114 1.11819 -0.611475 
243 1 8.66608 36.2961 1.53917 -2.25557 
244 1 7.44162 39.0288 0.369298 0 
245 1 13.127 43.5533 -1.61397 -64.0472 
246 1 10.6562 39.557 -1.44789 0 
247 1 21.5448 37.4774 -1.83948 29.5728 
248 1 14.0688 43.6367 1.71751 63.7443 
249 1 21.8039 45.8744 -0.299373 0 
250 1 25.2591 43.1556 -0.506564 0.255436 
251 1 23.4854 39.3795 0.0854221 0 
252 1 36.9275 38.8181 1.53019 -0.143719 
253 1 34.9356 39.3422 1.54094 -0.172062 
254 1 47.3857 41.0858 2.69838 -0.191388 
255 1 43.082 34.886 -0.0658962 0.220226 
256 1 44.7159 34.6814 0.0941481 -0.367912 
257 1 55.0079 37.9364 0.221123 0.302225 
258 1 55.2638 35.1637 0.960874 1.67389 
259 1 56.043 34.2206 -1.4929 -1.03133 
260 1 57.5282 38.3861 0.512454 -0.0581516 
261 1 4.29137 34.9977 -0.701988 0.0380814 
262 1 4.06023 38.496 -0.0872877 3.60033 
263 1 10.2242 42.2411 -0.208418 0.478822 
264 1 6.9596 45.1582 0.432564 1.37894 
265 1 11.3468 43.4222 -0.314628 -0.471525 
266 1 16.8918 37.8557 -0.412741 0 
267 1 20.8084 38.1144 0.796811 -29.4603 
268 1 25.8836 46.256 -1.32254 1.12809 
269 1 26.9431 37.0957 -0.945012 -0.0302153 
270 1 26.4919 35.0659 -0.809075 0.0927705 
271 1 34.7035 40.6902 -0.497105 0.165295 
272 1 28.8357 39.8469 -2.34015 0.598075 
273 1 29.9435 38.7212 -1.65541 -0.598075 
274 1 46.494 39.4082 -0.0274625 -0.167445 
275 1 46.205 33.6409 0.0429994 -0.284624 
276 1 42.0448 41.5856 -1.12931 0 
277 1 58.8627 44.6677 2.41312 0.244891 
278 1 56.8669 46.3087 1.45418 0 
279 1 57.2611 35.4396 0.627249 -0.51739 
280 1 59.5298 40.1477 -0.590678 0 
281 1 61.247 49.403 0.0228256 0 
282 1 7.24597 42.9946 0.181751 -0.462607 
283 1 6.39801 46.0902 0.274079 -4.18228 
284 1 63.0727 46.0526 -2.35274 -2.06479 
285 1 13.3159 47.1093 0.409036 -0.861476 
286 1 10.0436 44.5451 -1.34763 0.381655 
287 1 17.2252 46.4956 -1.16732 1.02584 
288 1 26.5067 45.129 0.442644 -0.323905 
289 1 26.9596 44.0229 0.118416 -1.05963 
290 1 32.6958 41.1032 -1.5834 0.150486 
291 1 32.0268 49.552 -0.383224 0 
292 1 30.6134 43.5316 2.32523 -0.130117 
293 1 40.5147 46.54 1.45721 -0.863046 
294 1 38.5449 41.6167 -0.588298 0 
295 1 40.0876 47.736 -0.480805 0.792745 
296 1 52.5055 39.9097 0.461071 -0.15107 
297 1 53.8738 46.4496 0.523066 0.124245 
298 1 47.5766 45.8093 -1.00202 0.164924 
299 1 55.4088 49.397 0.257393 0.19251 
300 1 61.0108 45.0362 -0.606869 0.0656692 
301 1 63.1852 45.0452 1.2323 1.94181 
302 1 2.98703 38.3811 1.45852 -4.90355 
303 1 5.4112 47.1275 -1.71324 1.32102 
304 1 6.53891 47.1119 -0.129638 1.49542 
305 1 13.5345 48.1604 1.0016 1.07791 
306 1 14.2756 45.6007 -0.981507 -0.257196 
307 1 17.6245 47.6697 -0.438941 -0.771237 
308 1 22.4759 54.4734 1.60609 -2.21162 
309 1 17.8873 44.9786 -1.1767 -0.254606 
310 1 36.8639 47.1469 -0.713734 0.219182 
311 1 30.5107 44.6851 0.725704 0.130117 
312 1 35.5957 43.7111 1.33275 0 
313 1 43.397 50.3967 0.748175 0 
314 1 35.7656 53.6598 -0.64366 0.105891 
315 1 49.5477 45.3625 0.420157 -0.164924 
316 1 51.1568 38.5057 0.644868 0.0279882 
317 1 57.5416 51.3877 0.298478 -0.563908 
318 1 52.0996 47.8874 0.606553 1.33377 
319 1 55.4332 39.3941 -1.52594 -0.244073 
320 1 59.4593 52.434 -1.04629 -0.000293155 
321 1 62.8254 52.662 -0.996252 -1.97569 
322 1 61.6826 52.3085 -0.921803 2.01708 
323 1 11.315 47.4846 0.760622 0.220875 
324 1 8.8542 49.0822 -1.42927 0 
325 1 8.004 56.7577 -1.74798 0.0289129 
326 1 15.1104 50.6493 0.583252 -1.20872 
327 1 14.0732 49.7003 -1.33806 0.978336 
328 1 21.1725 54.6808 0.478524 1.61256 
329 1 25.7295 50.9354 1.23841 25.7958 
330 1 19.4107 49.7593 -1.96501 -1.01716 
331 1 33.213 53.6903 -0.997879 -0.118179 
332 1 39.2798 53.6612 0.867122 0.108707 
333 1 41.6334 53.1611 1.74821 -0.582391 
334 1 37.2576 52.1008 -2.07865 -0.0746548 
335 1 38.3061 45.954 1.20257 -0.148881 
336 1 40.6362 51.9332 -0.144354 0.473683 
337 1 57.1627 50.2537 1.36114 2.18959 
338 1 52.9704 47.1094 -1.72331 -1.45802 
339 1 58.9574 43.4996 -0.122489 -0.145516 
340 1 63.0847 54.2942 1.34091 -0.0117891 
341 1 1.28806 47.8474 0.745317 -0.0420674 
342 1 6.44925 54.5171 1.5405 -0.83287 
343 1 9.6867 54.5776 0.349108 11.3918 
344 1 4.34842 50.8935 -1.21169 0 
345 1 13.292 56.635 -0.335811 -0.0421767 
346 1 9.91469 51.9699 1.07459 -1.35636 
347 1 22.7069 51.0019 0.822999 0.165595 
348 1 20.9098 55.8641 0.389347 0.614434 
349 1 21.5971 58.1523 -1.39396 -0.383267 
350 1 30.3957 58.8772 -1.34822 -1.17525 
351 1 37.5641 56.9927 0.126023 -0.554045 
352 1 38.5061 57.6009 0.130394 0.136706 
353 1 39.2901 60.6672 -1.28487 -1.98284 
354 1 39.2011 59.3347 1.08818 -0.136442 
355 1 47.75 56.9741 -0.0355052 0 
356 1 51.53 56.7869 0.469337 -0.0815107 
357 1 46.7648 52.0811 -1.10584 0 
358 1 50.6126 58.5704 -0.631833 -0.228195 
359 1 58.0385 49.3897 2.12917 -1.73109 
360 1 1.96755 54.4433 1.07338 -0.116409 
361 1 6.54432 53.4772 1.06546 0.875016 
362 1 9.13859 52.8696 -0.145493 1.46214 
363 1 5.93769 57.0931 2.09058 0.131284 
364 1 8.82856 55.1434 0.541105 -11.6999 
365 1 13.166 60.0928 -0.280727 0.0115676 
366 1 20.4765 59.3264 1.33911 0.465553 
367 1 18.5792 50.8784 -0.534736 1.01716 
368 1 24.6562 59.4705 -1.44129 1.14732 
369 1 31.2441 47.1195 0.943896 0 
370 1 29.1067 56.0694 0.687152 0 
371 1 31.8187 52.2318 0.574838 0.118179 
372 1 35.0851 57.1177 0.276127 -1.34746 
373 1 37.1026 55.6239 1.95561 0.452428 
374 1 45.0884 56.2518 1.97354 0 
375 1 41.7117 61.0579 -0.219469 -0.0439315 
376 1 46.7728 59.3304 -0.132265 0 
377 1 57.3025 56.6368 1.29458 0 
378 1 51.8825 61.9824 0.394451 0 
379 1 53.3735 52.7113 -1.83871 0 
380 1 1.14113 59.1225 -0.411935 2.01898 
381 1 62.1369 61.231 -0.138464 1.0753 
382 1 1.18634 57.6899 -2.22158 0.181576 
383 1 13.0517 54.8139 1.87831 0.0421767 
384 1 16.1567 57.0217 2.18026 1.64539 
385 1 17.1714 55.6783 -0.172967 -0.343896 
386 1 23.6627 58.5143 -2.07236 1.20998 
387 1 24.7339 50.9668 -0.844127 -25.9614 
388 1 20.5721 62.1253 0.651892 -1.19185 
389 1 24.2659 2.15878 0.517616 -0.043706 
390 1 31.4362 0.72385 2.94863 -1.07555 
391 1 28.9352 59.1759 -1.01898 1.10138 
392 1 26.8893 60.1097 1.17535 -1.86162 
393 1 32.9051 57.3668 0.851906 1.01891 
394 1 39.4262 1.75398 -0.682671 -0.00956894 
395 1 38.1313 60.8646 -2.07823 2.12242 
396 1 41.5247 56.5185 -0.64194 0 
397 1 49.4151 59.8406 -0.197184 0.238052 
398 1 57.1942 62.8782 1.07072 0.459941 
399 1 59.994 57.7089 1.21546 0 
400 1 63.0562 62.2934 0.162527 -1.0753 
