ITEM: TIMESTEP
400
ITEM: NUMBER OF ATOMS
400
ITEM: BOX BOUNDS pp pp pp
0.0000000000000000e+00 6.3245553203367592e+01
0.0000000000000000e+00 6.3245553203367592e+01
-3.1622776601683800e-01 3.1622776601683800e-01
ITEM: ATOMS id type x y vx fx 
1 1 60.6463 63.2071 -1.57283 0.0129306 
2 1 4.59534 0.789106 1.18962 8.27915 
3 1 4.68898 61.4442 -0.820343 0 
4 1 10.7253 2.67071 0.684184 -0.0275319 
5 1 14.0046 61.3686 0.677752 0 
6 1 15.2874 1.55103 -0.951435 1.13894 
7 1 17.9905 62.1541 -1.58396 0 
8 1 23.1117 62.8889 1.58683 0.0844322 
9 1 26.3543 2.05936 0.622644 3.34045 
10 1 27.4673 62.1168 0.125863 0.00660213 
11 1 28.684 60.2937 -1.48586 -0.0538284 
12 1 32.2194 63.2353 -1.29147 -0.089852 
13 1 35.869 60.3545 -1.25332 -1.00703 
14 1 39.3879 1.42931 -0.929629 -0.085977 
15 1 41.9232 1.07696 -1.23688 0 
16 1 48.8084 0.76114 1.02978 1.11522 
17 1 50.9388 62.622 1.56134 0 
18 1 56.1026 61.405 1.46523 -1.14248 
19 1 57.4712 2.86696 0.673789 -1.76075 
20 1 60.9571 2.14851 0.824271 0.0438503 
21 1 0.0661374 2.38603 -1.63024 -0.00704359 
22 1 3.70936 1.34065 1.48082 -8.27915 
23 1 8.38194 4.35393 1.08431 0.168156 
24 1 10.5079 4.57463 0.393934 -0.243586 
25 1 13.6757 1.23487 -1.51537 0.656085 
26 1 16.4588 1.53185 1.44402 -1.79503 
27 1 19.4293 3.38327 2.00467 1.12802 
28 1 20.5976 2.5251 -1.07875 -1.12802 
29 1 25.956 3.02883 -0.396166 -3.34045 
30 1 30.7106 1.46575 1.13371 0.089852 
31 1 32.8405 4.73442 0.531816 -0.588092 
32 1 37.139 4.22278 0.861635 0.0747835 
33 1 37.4671 2.47832 0.089892 0.0111935 
34 1 39.6664 4.02646 -0.667511 0 
35 1 46.1223 4.25886 -0.417836 0.961748 
36 1 47.187 4.74728 1.19849 -1.62802 
37 1 49.5874 1.62852 -0.795524 -1.0716 
38 1 52.9607 2.35942 -0.399 0 
39 1 55.5708 6.03253 0.259486 0.401388 
40 1 58.5374 3.13496 -1.58064 1.5059 
41 1 1.62406 4.05653 0.910869 0.0823781 
42 1 2.40577 5.7288 -0.494051 -0.132115 
43 1 9.60326 6.17738 1.6789 0.102962 
44 1 7.76218 9.23167 -0.905819 0 
45 1 16.1518 7.73831 1.60312 0 
46 1 13.5804 7.97963 -0.967256 0 
47 1 19.142 7.5002 0.867055 0.139098 
48 1 21.5993 6.10141 -0.137759 0 
49 1 25.9584 5.81718 -0.715593 -0.0390918 
50 1 29.6731 5.93683 -2.40904 0.753211 
51 1 34.242 9.26483 -0.408655 1.68412 
52 1 32.2426 6.0778 0.0527688 -1.73737 
53 1 41.2947 6.46063 1.57393 -0.0120951 
54 1 40.1673 8.60722 -0.792763 1.07453 
55 1 44.6109 3.66304 0.263869 0.666275 
56 1 50.1815 3.59587 1.30105 -0.0436221 
57 1 48.4106 7.88189 -1.39436 0.026974 
58 1 53.208 6.44657 -0.25768 0.0511761 
59 1 56.8491 4.48915 -0.457941 0.45523 
60 1 58.2694 5.53248 -1.13997 -0.552369 
61 1 1.52686 8.3408 0.920572 0.974474 
62 1 4.69813 11.5627 0.642054 0.531883 
63 1 5.22 7.42789 -0.552277 0 
64 1 6.28887 11.7468 -1.68512 -0.767548 
65 1 13.3557 11.8257 -0.0416767 -1.46597 
66 1 18.3669 10.7387 0.776073 0.108858 
67 1 19.4412 9.08489 -0.047415 -0.247956 
68 1 22.9209 10.3819 0.320984 0 
69 1 25.3551 7.81626 -0.758975 0.0390918 
70 1 28.5742 6.88361 1.99932 1.05675 
71 1 31.0368 6.10562 1.44771 0.515499 
72 1 35.1339 10.1555 1.10567 -1.68412 
73 1 36.4325 7.64362 -0.0520878 0 
74 1 41.6229 8.72518 0.669178 -1.35104 
75 1 44.5701 8.57084 0.702131 -35.9074 
76 1 45.5128 8.82395 0.00105714 35.9721 
77 1 49.876 9.84345 -1.66301 1.81153 
78 1 51.0078 9.51778 0.224512 -1.83851 
79 1 56.6093 6.47616 -0.4273 -0.100576 
80 1 62.6424 11.6103 1.27955 0 
81 1 60.2157 15.4894 -1.39412 0.0618716 
82 1 2.87457 9.03195 -0.133132 -0.974474 
83 1 6.79263 14.1012 1.62541 0.156269 
84 1 9.68956 15.9018 0.0298597 -0.186235 
85 1 10.3651 9.01367 -1.02848 0 
86 1 12.4173 12.7726 -1.07331 2.99483 
87 1 19.4559 13.716 0.651409 0 
88 1 23.4272 13.8726 0.717136 0 
89 1 25.7834 10.7452 0.433134 -0.17668 
90 1 25.1619 11.687 -1.83982 0.17668 
91 1 28.0724 13.3645 -1.98196 0.0959587 
92 1 37.7356 14.7774 1.47525 0 
93 1 39.207 10.0234 0.655614 0.28861 
94 1 42.915 11.7816 -0.0399319 0 
95 1 45.4512 10.1985 0.000600038 -0.0647519 
96 1 48.6869 15.1489 0.681248 -1.38499 
97 1 47.7685 13.4998 -1.38186 0.130739 
98 1 55.7268 13.5639 0.986755 0.0375829 
99 1 54.3332 14.8028 -1.26389 0.131486 
100 1 57.6002 13.2598 -0.936189 -0.255563 
101 1 63.2336 16.3417 -0.0476881 3.53314 
102 1 3.33965 12.7876 -1.07744 0.246262 
103 1 4.71339 14.8895 -0.959531 0.082097 
104 1 7.68091 15.5824 -0.144909 -0.0753317 
105 1 13.3092 13.5549 0.0152044 -1.52886 
106 1 12.4949 17.0848 -1.68566 0 
107 1 16.0487 14.5544 -1.87278 0 
108 1 20.7472 19.1482 -0.60174 0.650419 
109 1 25.2834 17.2301 0.0649566 0.116882 
110 1 27.0212 18.37 -0.409719 0.456516 
111 1 30.239 13.0348 -0.485081 -0.0959587 
112 1 35.9335 17.1759 0.653038 0.651891 
113 1 39.7988 16.8478 1.31213 -0.142225 
114 1 42.4554 16.312 0.917649 0.770827 
115 1 43.9433 18.5861 -0.0247298 -11.9565 
116 1 43.9929 16.7396 -1.88305 -0.570409 
117 1 52.1793 15.3362 0.798636 0.0864935 
118 1 56.3876 16.8556 1.29091 -0.0336693 
119 1 58.9994 17.5741 1.05214 8.0223 
120 1 62.4733 15.5888 1.33732 -3.61162 
121 1 60.7169 17.9127 -1.20743 -0.533498 
122 1 0.582659 21.9788 -1.2454 0.160127 
123 1 7.24113 19.4645 -1.87859 1.56914 
124 1 8.22037 17.8718 -0.770455 -0.134198 
125 1 13.3712 21.0486 0.177333 0.0794364 
126 1 15.8209 18.6732 0.846371 0 
127 1 18.0241 20.0685 -1.80384 1.30652 
128 1 21.5421 20.4494 0.534568 1.05429 
129 1 26.39 22.1207 -0.520429 -27.1302 
130 1 28.6956 18.2169 -0.264752 -0.573398 
131 1 32.388 18.7704 0.382604 0 
132 1 37.1376 18.2693 -0.687195 -28.9967 
133 1 37.9583 17.7316 0.959458 28.487 
134 1 41.5894 19.4882 0.125328 0 
135 1 45.9354 21.363 0.565695 0 
136 1 44.9212 18.2563 -1.09778 11.7561 
137 1 48.988 16.1794 -0.891198 1.25425 
138 1 54.5269 18.4552 0.407697 0.0727693 
139 1 58.7637 20.4723 0.889464 -0.0648831 
140 1 58.5937 18.5017 -1.40813 -7.45536 
141 1 2.5915 22.2956 1.3074 -0.311786 
142 1 2.22195 23.8941 -1.88304 0.151659 
143 1 9.04184 22.7902 1.13551 0 
144 1 8.3722 20.2691 1.42621 -1.42234 
145 1 12.6362 24.5535 0.85105 2.45484 
146 1 18.4111 22.2257 -0.341386 0.0790714 
147 1 16.375 24.299 -1.43715 0.0764462 
148 1 19.4139 20.5115 1.31075 -1.09182 
149 1 22.5096 19.7539 -1.91306 -1.99849 
150 1 27.3561 22.342 1.05827 26.5142 
151 1 29.694 23.2132 -0.968652 -0.0370575 
152 1 38.678 22.9459 2.50592 0.636308 
153 1 36.4513 21.485 -0.0349199 0 
154 1 40.038 23.81 -0.520783 0.0046201 
155 1 42.6301 25.3001 0.26067 -1.77667 
156 1 49.1853 21.5703 0.538309 0.212218 
157 1 52.0904 21.7746 0.734833 -0.0654522 
158 1 54.6106 24.3381 0.42596 0 
159 1 55.9249 20.3101 -0.43349 -0.0125223 
160 1 57.4033 22.271 -1.34597 0.0214642 
161 1 1.57733 27.2897 0.761249 0 
162 1 5.37723 27.1212 1.13275 0.043449 
163 1 5.20274 23.2297 0.780711 0 
164 1 10.5371 28.0833 0.696631 0 
165 1 12.4916 23.547 -1.52071 -2.45484 
166 1 15.262 22.1855 -0.247231 -0.0545053 
167 1 20.7266 27.0265 0.702179 0.0408531 
168 1 20.3516 24.7337 -0.585918 0.0773036 
169 1 26.7438 23.4149 -0.628872 0.653081 
170 1 28.4201 26.1067 0.951686 1.69721 
171 1 31.3287 25.3203 -0.111662 -0.104431 
172 1 35.9458 25.3372 -0.176692 0 
173 1 38.8738 25.714 -0.16317 1.84773 
174 1 41.7638 26.2592 -2.22002 0.547316 
175 1 41.294 24.7713 -0.983424 0.223908 
176 1 50.2222 23.042 1.74342 -0.146765 
177 1 51.7896 25.0838 0.596565 0 
178 1 53.7844 28.1073 1.73053 0.839072 
179 1 57.3829 25.7256 1.40464 0.058462 
180 1 62.1692 25.3717 1.4257 -0.300038 
181 1 62.2092 26.4234 0.295984 0.300038 
182 1 4.32344 31.5699 0.621809 0 
183 1 7.02269 29.1495 1.33498 0 
184 1 6.95385 25.4097 -1.44809 -0.043449 
185 1 13.2532 28.9421 0.434415 0.254904 
186 1 17.8045 25.7882 0.977434 -0.101377 
187 1 18.5951 31.5483 0.980167 2.20303 
188 1 22.4968 25.5389 0.0484816 -0.118157 
189 1 22.9658 30.4294 -0.996213 0.114388 
190 1 29.5229 26.8588 0.544008 -0.391122 
191 1 32.9667 27.2197 0.309175 -0.283501 
192 1 31.1044 27.0371 -1.74363 -1.61061 
193 1 40.241 25.8667 0.495286 -0.181575 
194 1 43.8214 26.1246 1.51022 -0.753169 
195 1 44.864 27.3187 2.29342 -0.548471 
196 1 44.828 30.9981 -1.20888 -0.00976769 
197 1 47.9608 27.6683 -1.31782 0 
198 1 54.301 29.2732 -1.41174 -0.93517 
199 1 55.0126 31.6152 -1.93007 -6.63946 
200 1 58.7362 27.4582 -1.06099 -0.148616 
201 1 61.3943 29.0192 -0.92565 0 
202 1 1.14535 30.885 -2.03561 0 
203 1 5.92057 33.5794 -1.08841 -20.4389 
204 1 11.4891 31.8348 1.00112 0 
205 1 15.0319 29.569 1.05901 -0.254904 
206 1 14.779 34.7179 -0.452895 -0.0151987 
207 1 19.5631 30.4999 -0.690561 -0.449104 
208 1 20.0524 31.8126 -1.23152 -1.80644 
209 1 25.0915 30.2004 -0.273341 -0.114388 
210 1 30.5003 28.1413 1.47502 1.68565 
211 1 31.0168 29.2707 -0.751192 -0.99319 
212 1 36.5198 29.453 0.642971 0.397998 
213 1 36.8542 30.8134 -0.322174 -0.397998 
214 1 39.5994 32.1189 -0.755086 0 
215 1 47.5758 31.6977 1.55119 0 
216 1 44.8056 32.6254 -1.30773 0.00976769 
217 1 51.5752 33.0102 1.10432 1.77258 
218 1 51.7622 28.7984 -2.18178 0.10923 
219 1 58.6432 28.904 0.020101 0.0901538 
220 1 59.2246 31.5198 -0.446107 0 
221 1 61.4304 33.2416 -0.876272 0.141596 
222 1 4.31088 35.9238 1.1912 -0.469709 
223 1 5.89461 37.8142 0.3627 0.0461648 
224 1 11.3587 35.9212 0.2702 0.088481 
225 1 12.5609 37.5872 0.650838 0.0241296 
226 1 17.9848 33.4674 1.40367 -0.0684874 
227 1 18.7994 34.2355 -0.720506 0.121005 
228 1 23.8884 33.125 0.643356 -0.0131356 
229 1 23.6291 35.2638 -0.601703 0.0131356 
230 1 30.5046 36.7262 -1.67283 0.582491 
231 1 29.7308 34.2033 -1.00911 0 
232 1 32.1514 36.4252 1.4412 -0.582491 
233 1 37.7653 34.7272 0.68997 -0.0338697 
234 1 41.8192 36.0559 1.45612 0.0534174 
235 1 43.9434 35.0412 -0.191522 0.043749 
236 1 45.8251 36.4217 -0.278929 -0.256059 
237 1 51.6549 36.3879 -1.31277 -1.39315 
238 1 52.6138 32.441 -1.18739 -1.77258 
239 1 56.0305 31.9036 0.581358 6.62632 
240 1 61.2973 37.3333 0.602213 -0.0272824 
241 1 62.5315 34.8054 -1.45244 -0.141596 
242 1 2.79226 35.1787 0.29142 0.497248 
243 1 6.35923 34.4396 0.305387 20.4389 
244 1 8.16585 37.6201 -0.676384 -0.0737039 
245 1 12.7221 39.6523 0.0357368 -0.00412111 
246 1 14.5572 36.7793 -0.651535 -0.0862895 
247 1 20.3399 36.6788 0.940394 0 
248 1 20.8521 41.0013 -1.91666 -0.874139 
249 1 22.6995 41.055 -0.263726 -0.300497 
250 1 27.1616 40.6667 -0.623528 0.553448 
251 1 29.0665 39.9255 -0.64744 -0.497816 
252 1 36.3012 36.6023 -1.07631 -0.087554 
253 1 35.8489 38.2794 -1.17602 -0.117019 
254 1 42.1209 41.1217 1.22243 -0.78684 
255 1 44.7712 36.9999 1.36769 1.54505 
256 1 46.7454 35.6333 -1.24073 -1.79251 
257 1 53.4682 39.212 1.0093 0.0140302 
258 1 52.731 36.625 1.30547 1.39315 
259 1 56.6604 36.7409 -0.140059 -0.0412273 
260 1 58.766 38.4205 -0.617028 -0.00422487 
261 1 2.16004 38.7547 1.08002 0 
262 1 3.2235 41.562 0.0310499 0.00834719 
263 1 8.10135 41.703 0.929477 0.053868 
264 1 9.54385 43.4159 -0.012572 -0.053868 
265 1 13.0468 42.0304 -0.777761 -0.00700123 
266 1 16.1616 40.2133 1.14914 0 
267 1 19.3789 40.7706 -0.884812 1.18351 
268 1 24.8121 44.1679 1.28778 0.0109785 
269 1 28.8782 41.0797 1.3595 0.496278 
270 1 28.3484 38.1344 -0.947761 0.0861537 
271 1 32.2128 40.1754 1.41216 0.120287 
272 1 33.0358 42.0144 -0.604465 -0.070588 
273 1 34.5317 39.5491 -1.62394 0.188744 
274 1 44.2876 39.4964 1.20385 0.215543 
275 1 44.2638 38.4028 0.373902 0.359653 
276 1 45.4304 40.9873 -1.0363 -0.168847 
277 1 53.2305 43.4442 0.752516 5.59024 
278 1 53.6564 41.2545 0.834492 -0.0304243 
279 1 56.4473 38.5419 -0.213353 0.106266 
280 1 60.8703 39.3811 0.350357 -0.0335312 
281 1 61.3154 46.8376 -0.0381274 -0.336328 
282 1 4.6801 44.7454 1.20065 0.281682 
283 1 5.29374 43.2 -0.697066 -0.407251 
284 1 6.10349 45.7221 -2.11148 -0.323169 
285 1 11.9876 46.1205 0.553964 0.512594 
286 1 12.781 45.3105 -1.89597 -0.398053 
287 1 19.3804 47.3279 0.190315 -0.00410289 
288 1 23.1101 43.4192 1.97129 0.263198 
289 1 26.3151 43.1414 0.0513809 -0.28305 
290 1 29.9489 42.2185 0.688074 -0.461482 
291 1 32.3308 46.1498 -0.120486 2.16985 
292 1 30.812 43.7985 -2.1847 0.0993796 
293 1 38.9068 45.4197 0.314497 0.0547555 
294 1 41.303 42.3196 -1.27279 0.78684 
295 1 40.9519 44.8982 -1.70478 -0.121868 
296 1 50.4665 43.535 2.13369 -2.13025 
297 1 52.4391 44.1416 0.660567 -5.65708 
298 1 52.5085 45.5266 -1.86985 -0.0569147 
299 1 55.6536 46.3663 0.493549 -0.0300561 
300 1 59.7207 46.0173 -1.10995 0.270239 
301 1 0.659301 46.1158 -0.583431 0 
302 1 3.3422 43.625 0.778314 0.517694 
303 1 5.9962 47.5933 -0.141693 0.0161261 
304 1 8.20997 46.3253 -0.279676 -0.0934291 
305 1 13.2933 47.6789 -0.173932 -0.0493915 
306 1 16.074 47.8954 -0.620997 0.319336 
307 1 18.5378 49.3691 0.929209 -0.76706 
308 1 20.6798 49.3092 -0.960503 -0.258307 
309 1 22.3294 46.5029 -1.4844 0 
310 1 31.8709 45.1842 2.01537 -2.44581 
311 1 29.1596 46.9291 -1.18462 -0.0454925 
312 1 37.1371 46.7848 0.423623 1.15005 
313 1 40.7885 48.4105 1.45575 0.249287 
314 1 37.8411 47.9192 -0.625438 -1.08293 
315 1 46.4768 47.011 1.10244 0 
316 1 49.2178 43.8141 0.29232 2.27039 
317 1 54.2443 49.2853 2.46225 -3.35967 
318 1 52.4146 49.4834 0.459632 -4.38667 
319 1 56.9087 43.9112 -0.193023 0 
320 1 61.5326 49.5784 0.72677 0.0415032 
321 1 0.959047 52.981 -0.114976 2.75525 
322 1 2.22927 52.1394 -0.694373 -1.03539 
323 1 8.95653 49.5552 1.46604 0.969612 
324 1 10.3023 50.1767 0.0111548 -1.12429 
325 1 11.2779 54.1397 0.0411767 0.04063 
326 1 14.6007 49.397 -0.921072 0.0637809 
327 1 17.0918 49.1878 -0.962896 0.901584 
328 1 21.5416 51.3847 -0.126201 -0.0977946 
329 1 26.8731 47.7356 0.851668 0.0454925 
330 1 24.9798 50.1539 -1.80326 0 
331 1 32.8265 52.6374 0.59809 -0.0390448 
332 1 36.7974 51.6484 0.972248 0.0508183 
333 1 38.7813 52.9054 0.587967 0.641397 
334 1 40.4708 52.9054 -0.281239 -0.631603 
335 1 41.0219 49.8177 -1.69499 -0.249287 
336 1 43.9981 50.7836 -1.71803 0 
337 1 53.3747 49.9517 0.396804 3.34748 
338 1 54.8954 48.4555 0.493477 4.55863 
339 1 58.0764 47.5069 0.582175 0.0660899 
340 1 60.0565 53.5665 2.2921 -0.360394 
341 1 -0.00775718 51.2154 -0.618086 0.0871258 
342 1 1.98656 53.6253 2.27751 0.339368 
343 1 7.6319 54.5421 1.0386 -0.0538758 
344 1 7.98101 51.1404 -1.22558 0.15468 
345 1 14.4811 56.0667 -0.62855 1.16746 
346 1 13.4497 53.0199 -1.22384 -0.04063 
347 1 19.3358 50.73 0.190529 -0.222586 
348 1 20.2589 56.116 0.237778 -0.888521 
349 1 25.6648 55.8044 -1.5944 2.18066 
350 1 29.5211 56.2241 0.694535 0 
351 1 34.119 56.5857 2.07756 1.01331 
352 1 37.0091 54.7362 1.07303 -0.251683 
353 1 40.8515 54.8268 0.599995 -1.99786 
354 1 39.9862 56.4576 -1.28681 0.0901356 
355 1 46.1867 54.0519 0.957423 0 
356 1 50.1559 53.3708 1.57094 -0.13585 
357 1 49.643 52.3662 -0.686788 0.13585 
358 1 52.386 55.4548 -0.656803 0.150497 
359 1 53.952 51.6201 -1.51219 -0.129717 
360 1 61.2113 53.5266 0.286602 -1.45909 
361 1 3.28581 53.9172 1.70189 -1.97794 
362 1 3.35074 55.1939 -0.303406 -0.209916 
363 1 5.95504 55.8545 -1.45284 0.476372 
364 1 7.71607 56.1517 0.0408202 -0.214317 
365 1 13.2986 58.7097 0.572073 -0.0768459 
366 1 16.9168 57.1254 0.321724 -1.0371 
367 1 19.0139 55.5429 -0.996359 1.67558 
368 1 25.0357 59.9066 1.54957 -23.5254 
369 1 28.5025 53.6719 1.53332 0 
370 1 26.9736 55.8829 0.975333 -2.18066 
371 1 30.9587 54.1597 -0.439717 0.0390448 
372 1 34.8519 57.6249 0.916449 -1.99677 
373 1 36.4468 56.2224 0.159221 0.142176 
374 1 39.5027 54.5803 0.55452 1.80802 
375 1 42.7331 58.4925 -0.769413 0 
376 1 47.1696 57.8847 -0.132265 0 
377 1 53.3976 57.0356 1.371 -0.150497 
378 1 54.2742 60.1796 -1.13811 -2.22349 
379 1 58.9196 53.8524 -2.12103 1.81949 
380 1 62.082 58.9743 0.520257 1.16364 
381 1 61.9181 60.9082 -0.246322 1.55915 
382 1 2.52387 59.0882 -0.319206 0 
383 1 8.66361 57.6629 1.12735 -0.169528 
384 1 11.1095 58.1604 0.850563 0.0381949 
385 1 15.4806 56.6435 2.93924 -0.130364 
386 1 19.1055 58.8219 1.64706 0 
387 1 21.7656 56.6135 1.23614 -0.787064 
388 1 22.7645 60.4357 0.0167282 0.215702 
389 1 24.5602 61.3704 -1.68348 1.98648 
390 1 25.5747 60.713 0.0872038 21.286 
391 1 33.2705 57.9531 -1.76758 1.17357 
392 1 32.3896 59.8605 -1.06719 0.0543795 
393 1 34.8383 59.339 -1.38742 0.911135 
394 1 40.5441 62.1492 -0.202027 0.122256 
395 1 42.2938 61.0465 -1.00721 -0.122256 
396 1 46.1666 60.261 -2.05232 0 
397 1 50.1436 59.9302 -0.24618 0 
398 1 54.6346 61.1733 0.257149 3.68394 
399 1 56.4015 59.8239 1.02358 -0.317972 
400 1 62.7205 59.992 1.65178 -2.72279 
