ITEM: TIMESTEP
700
ITEM: NUMBER OF ATOMS
400
ITEM: BOX BOUNDS pp pp pp
0.0000000000000000e+00 6.3245553203367592e+01
0.0000000000000000e+00 6.3245553203367592e+01
-3.1622776601683800e-01 3.1622776601683800e-01
ITEM: ATOMS id type x y vx fx 
1 1 58.3228 1.29521 -1.49661 0.119169 
2 1 6.7111 0.133577 0.780722 -0.942871 
3 1 3.45626 60.105 -0.833472 -0.0489968 
4 1 11.7415 3.29381 0.679808 0.0435078 
5 1 15.5371 60.208 1.18149 -0.0795915 
6 1 14.2011 1.5583 -0.719842 0 
7 1 15.6147 61.3769 -1.17999 -0.118772 
8 1 25.3984 63.1756 1.19774 -0.239104 
9 1 27.0936 2.03955 0.442077 0.0325646 
10 1 26.9315 60.7346 -0.724938 -0.0585825 
11 1 26.4698 58.152 -0.221765 -1.65392 
12 1 30.591 61.9258 0.00351658 3.31882 
13 1 34.5127 57.2632 -0.188358 1.86581 
14 1 38.4898 0.583888 -0.00424396 0.214753 
15 1 40.0448 3.44879 -1.25729 0 
16 1 48.4514 62.7799 -0.279352 0 
17 1 53.2548 0.555338 1.38697 -0.829272 
18 1 57.171 61.6308 -0.0520555 3.72663 
19 1 56.4121 2.81171 -1.34129 4.01877 
20 1 59.8324 2.5123 -1.72084 -0.244259 
21 1 63.1931 2.939 0.80285 0 
22 1 5.59926 0.398509 1.88971 0.942871 
23 1 10.3204 5.48574 1.4229 -0.256117 
24 1 11.8014 4.80626 0.736458 -0.682215 
25 1 11.6411 0.0130309 -1.3221 0 
26 1 18.0548 62.9361 1.06833 0.126115 
27 1 22.7513 4.16157 2.22698 0.0738681 
28 1 18.6486 1.38087 -1.35982 -0.126115 
29 1 25.9374 3.62906 -1.61348 2.28875 
30 1 32.1418 1.548 0.810048 0 
31 1 34.795 4.55387 1.4649 0.182611 
32 1 37.7993 5.11269 -0.426579 -0.937887 
33 1 37.1528 1.95125 -0.698221 0.171999 
34 1 39.2672 6.52452 0.428734 -0.0103753 
35 1 45.7429 4.30661 -0.341884 -0.63172 
36 1 48.3047 6.505 0.514765 -1.11871 
37 1 50.7491 2.54631 1.33322 0.264485 
38 1 52.8636 1.79924 0.830707 0.316125 
39 1 54.761 8.06249 -1.11671 0.689441 
40 1 59.4704 4.29011 1.11981 -0.0160602 
41 1 3.0133 2.72879 0.912548 0 
42 1 1.62982 4.84548 -0.50621 -0.00392315 
43 1 11.1069 8.36981 -0.519732 -19.0679 
44 1 6.41533 11.2871 -0.825109 0.375555 
45 1 18.751 9.85676 1.85268 0.289635 
46 1 12.0843 8.11458 0.231436 19.0913 
47 1 20.6497 6.30984 0.942726 0.635698 
48 1 21.1958 7.60559 -0.205607 -0.488383 
49 1 24.3567 5.63782 -1.06858 -0.316635 
50 1 27.0578 3.11893 0.284079 -2.28968 
51 1 33.9229 9.48923 -0.196217 0 
52 1 31.8901 6.4847 -0.854067 -0.929734 
53 1 43.0973 6.85572 0.251591 -0.193154 
54 1 41.1486 7.51764 0.65027 0.620737 
55 1 45.4158 1.98687 0.62697 0.0085492 
56 1 51.2071 0.969009 -0.57499 0.217814 
57 1 48.4117 7.53835 1.42844 1.11871 
58 1 52.9061 6.54352 -0.142245 0.0895215 
59 1 55.9124 3.76164 -1.44254 -0.965541 
60 1 57.3966 3.52577 0.880275 -2.91207 
61 1 1.45375 7.22925 -0.194871 0.0469114 
62 1 2.25798 12.3742 -0.572664 89.1304 
63 1 4.61753 5.52725 0.325214 -0.333099 
64 1 6.59849 14.009 0.778758 0 
65 1 12.1135 10.5325 -1.04182 0.0114095 
66 1 19.1632 13.4853 -0.29758 0.541689 
67 1 19.1449 8.78737 -0.301322 -0.240248 
68 1 22.3693 9.03311 -1.06195 -0.196703 
69 1 24.2077 6.94734 -1.05873 0.242767 
70 1 31.0191 7.45585 1.84269 1.50412 
71 1 32.1986 5.3329 0.962118 -0.574386 
72 1 36.4984 13.1012 0.893233 0 
73 1 36.3941 5.65589 0.134472 0.870935 
74 1 42.5134 8.41073 0.949069 -0.365682 
75 1 44.3211 5.09521 0.835038 0.588765 
76 1 45.2429 7.1791 -1.52134 -0.13278 
77 1 47.984 11.6994 -1.18832 -1.72066 
78 1 50.7438 9.26503 -0.223184 0 
79 1 55.2709 7.01405 -0.843789 -0.778962 
80 1 1.34014 12.2526 -0.648901 -88.0582 
81 1 59.3913 17.8239 1.48911 0.030521 
82 1 3.9036 6.97242 0.107336 0.290111 
83 1 8.06989 11.9326 0.393097 -0.375555 
84 1 8.81283 18.3762 -1.8096 0.13126 
85 1 8.87798 6.0494 -0.704478 0.894825 
86 1 12.8045 12.5749 0.709192 0.0765342 
87 1 20.8229 13.8161 1.74102 -0.541689 
88 1 24.5034 16.3675 0.722011 0.0300879 
89 1 25.0227 10.9743 -1.21573 -0.345336 
90 1 24.8441 9.75013 1.17254 0.345336 
91 1 25.1156 13.5613 -1.97065 0 
92 1 39.7453 14.8589 1.19014 0 
93 1 38.1581 10.549 -0.980353 0 
94 1 42.8558 13.2666 -0.0338162 0.0372778 
95 1 45.4911 10.1012 0.0352579 0 
96 1 48.2515 12.7235 -0.484876 1.72066 
97 1 46.045 14.4953 -1.00539 -0.057559 
98 1 57.6291 14.2236 1.33503 0 
99 1 54.4601 15.7483 0.82258 0.0573095 
100 1 55.7246 12.348 -1.32011 0 
101 1 62.9937 16.5685 -0.219685 -0.168293 
102 1 2.49865 11.2029 -0.0193082 -1.10902 
103 1 3.27969 14.4905 -0.987627 -0.272207 
104 1 8.39537 15.9073 0.52473 -0.481503 
105 1 12.2708 15.5163 -1.44901 0.353792 
106 1 10.7255 17.9833 -0.0431132 -0.209422 
107 1 13.4832 14.2993 -1.19174 -0.465122 
108 1 20.1289 19.7267 0.100012 -0.0481117 
109 1 25.4888 18.4425 0.189304 0.0282522 
110 1 26.5631 20.2882 -0.316669 -0.0583401 
111 1 29.4953 11.2921 -0.496393 0 
112 1 34.8266 16.3298 -1.01337 0 
113 1 41.453 16.9151 2.16214 3.01753 
114 1 43.8346 15.2745 0.828637 -0.297736 
115 1 43.306 20.3908 -0.52272 -0.371117 
116 1 41.8691 18.1478 -1.22954 -1.26229 
117 1 51.4043 15.0173 -1.24482 0 
118 1 57.1507 17.9717 -1.46571 -0.0737446 
119 1 57.8109 19.929 -1.02035 -1.34959 
120 1 1.38985 14.2181 1.4955 0.309039 
121 1 61.5363 17.8479 0.949855 0.0558493 
122 1 62.4429 23.1682 -0.529467 -0.144054 
123 1 4.66572 19.1794 -1.7007 0 
124 1 7.13807 16.9852 -0.530058 0.559665 
125 1 13.889 19.0118 -0.187443 -8.49967 
126 1 17.1421 18.259 0.78102 -0.335329 
127 1 15.658 19.2365 -0.301146 -1.69057 
128 1 23.3789 22.183 -0.188489 -65.0221 
129 1 24.224 22.5931 0.256581 63.6373 
130 1 28.0367 17.5029 -0.479557 0 
131 1 32.9619 18.6179 0.382604 0 
132 1 37.7792 18.8281 0.754616 0 
133 1 40.4699 17.4168 1.20991 -0.38211 
134 1 41.8796 21.4323 0.397447 -0.0543114 
135 1 46.7238 23.5977 0.127418 -0.487691 
136 1 42.9311 16.6852 -1.96034 -1.05512 
137 1 48.7555 17.9863 -0.131004 0.0335716 
138 1 55.0343 17.639 0.0591593 0.17183 
139 1 60.0036 21.4048 0.785418 -0.0566992 
140 1 56.4982 20.5513 -1.8163 0.603857 
141 1 3.9235 22.7358 -1.68491 0.948917 
142 1 1.25772 22.7803 0.451526 -0.129334 
143 1 10.8014 23.7127 1.22347 -0.0543172 
144 1 10.3319 21.1319 1.29923 0 
145 1 13.8212 27.197 0.892648 0.289593 
146 1 17.3857 24.027 -0.709989 0.362493 
147 1 14.2049 25.7351 -1.59674 -0.281477 
148 1 19.0978 20.1728 -1.25541 0.0538501 
149 1 20.3989 17.3373 -1.27651 -0.0057384 
150 1 29.2705 20.7413 1.23059 0 
151 1 28.0406 23.9479 -0.800738 27.5174 
152 1 42.3486 22.4365 2.08718 0.425428 
153 1 36.3989 21.0574 -0.0349199 0 
154 1 38.9686 24.0391 -0.31733 0.131561 
155 1 42.995 25.1741 0.192396 -0.26241 
156 1 50.0513 19.9411 0.580175 -0.0335716 
157 1 53.2318 21.2675 1.10083 -0.141403 
158 1 55.259 25.9883 0.476953 0.168927 
159 1 55.5058 19.3296 0.233648 0.574879 
160 1 55.393 22.2275 -1.32923 0.0449624 
161 1 2.71922 28.7937 0.761573 0.00477163 
162 1 7.13368 28.4623 1.24329 0.175417 
163 1 6.26033 22.6396 1.89511 10.529 
164 1 11.582 29.9537 0.697254 0.0234859 
165 1 10.3046 25.6014 -1.45579 0.0543172 
166 1 14.4417 19.8684 -1.17893 10.5256 
167 1 21.7861 28.6256 0.703017 -0.0397269 
168 1 20.9527 23.7779 2.16314 0.617312 
169 1 27.0481 23.9285 -0.0860795 -27.5174 
170 1 28.1713 28.7041 -0.279686 0.122218 
171 1 32.2599 23.3726 0.803088 -0.461209 
172 1 35.813 28.1976 0.291497 1.08949 
173 1 39.102 26.7063 -0.726768 -0.83453 
174 1 38.3455 27.8765 0.300548 -0.88375 
175 1 41.1171 24.6371 0.436674 2.50243 
176 1 52.7568 22.8392 1.35429 0.186796 
177 1 52.6673 24.8747 0.578436 0.00702311 
178 1 55.6807 29.6479 -0.445558 0.598108 
179 1 59.6295 23.2394 1.47019 0.0566992 
180 1 61.949 24.6626 -1.50647 0.315094 
181 1 62.7774 26.6533 0.259612 -0.0417062 
182 1 2.91459 31.1484 -1.65132 0.0138065 
183 1 8.97935 29.202 1.23277 -0.175417 
184 1 5.40425 23.215 0.339538 -11.4779 
185 1 14.0861 29.4778 0.598957 -0.00811537 
186 1 18.3164 24.6692 -1.31292 -0.362493 
187 1 19.6168 32.5031 0.844808 0.516216 
188 1 22.5247 23.275 0.0626575 0.767494 
189 1 21.4507 32.0258 -1.14432 -0.363555 
190 1 30.4889 26.2921 0.830448 -0.363103 
191 1 33.1364 24.6226 -0.233986 -0.945055 
192 1 31.3939 24.1389 0.65767 1.38204 
193 1 40.6754 25.6061 0.544507 -2.56796 
194 1 45.5946 23.6749 1.47012 0.487691 
195 1 45.2232 28.3717 -1.12058 0 
196 1 43.1191 31.3791 -1.15509 -0.102652 
197 1 48.979 26.621 2.04487 -0.0174316 
198 1 52.4524 29.957 -1.1711 -0.242689 
199 1 53.4923 32.5114 0.360034 -0.0286741 
200 1 56.9939 25.0295 -1.17321 -0.168927 
201 1 60.0058 27.0665 -0.92565 0 
202 1 61.3227 31.0387 -2.11829 -0.450402 
203 1 6.27377 34.1157 1.1064 0.604438 
204 1 12.9907 31.9938 1.00049 -0.0234859 
205 1 16.439 27.8535 0.893396 0 
206 1 14.775 35.2272 0.227884 0.414099 
207 1 19.2662 29.7355 0.127459 1.94981 
208 1 20.2793 30.416 0.277381 -1.82936 
209 1 24.6503 29.0139 -0.296194 0 
210 1 29.9945 27.7048 -0.758339 0.27671 
211 1 30.4251 29.9984 -0.345793 -0.011601 
212 1 37.0676 27.4195 -2.46209 0.838147 
213 1 36.3234 30.4924 -0.353051 -0.0129747 
214 1 39.2797 31.2212 0.565037 0 
215 1 49.9156 32.3368 1.63935 0.469313 
216 1 42.4975 33.1232 -1.6274 0.329568 
217 1 51.9331 34.3996 -1.17474 0.0286741 
218 1 48.4937 28.8185 -2.1897 0.0174316 
219 1 58.6779 30.2662 0.0624071 0.911316 
220 1 58.4931 32.0149 -1.24745 1.73167 
221 1 59.577 31.2738 -0.780573 -2.63012 
222 1 6.12662 36.6617 1.63267 0.600982 
223 1 6.56548 39.9038 0.502668 0 
224 1 11.8125 36.2559 0.37792 0.15834 
225 1 13.8007 39.8958 0.908666 -0.220967 
226 1 16.0412 34.1052 -1.79756 -0.414099 
227 1 19.4711 33.5915 0.440886 -0.233384 
228 1 24.8299 31.5584 0.617856 0 
229 1 22.6949 35.9575 -0.777157 -0.862702 
230 1 29.3579 37.0865 0.101727 -0.114877 
231 1 28.2171 34.0254 -1.00928 -0.0139812 
232 1 34.2503 37.1586 -0.278233 -8.47006 
233 1 37.9858 33.4075 -0.631214 0 
234 1 44.138 37.6168 0.819958 0.0808733 
235 1 43.7913 34.4273 -0.336387 1.72007 
236 1 48.216 35.8702 1.60604 0.0549575 
237 1 50.2976 36.9385 -0.855211 -0.0549575 
238 1 51.1672 31.245 -0.900436 -0.226624 
239 1 56.9169 30.6697 2.20801 -0.138614 
240 1 63.1573 37.8691 1.52588 0 
241 1 60.9491 33.048 -0.789114 -0.0219517 
242 1 3.33648 33.3006 0.371881 -0.0185781 
243 1 7.08711 35.3862 0.179828 -1.09376 
244 1 6.96875 37.4104 -1.1596 -0.168722 
245 1 12.5418 41.2818 -0.225557 0.0744716 
246 1 12.8263 37.8213 -1.41777 -0.128054 
247 1 21.7852 37.0914 1.11807 0.862702 
248 1 17.426 42.8282 -2.34919 0 
249 1 22.253 43.4621 -0.299373 0 
250 1 26.343 42.3798 -0.583279 -3.50487 
251 1 26.3167 38.3494 -2.83151 0.0376753 
252 1 35.0698 37.7979 0.908859 8.43741 
253 1 33.3358 39.5167 -1.48461 0.497021 
254 1 44.1435 40.3573 1.68311 -0.149445 
255 1 43.6229 35.858 -0.700743 1.95242 
256 1 44.8718 35.0628 -0.552956 -3.09711 
257 1 55.0238 37.6058 -0.152461 -27.305 
258 1 54.1267 36.4338 1.04919 0.940175 
259 1 56.6215 35.2633 0.021605 -0.0424409 
260 1 57.7827 38.8095 -0.697064 -0.0383509 
261 1 3.78567 36.9865 1.10489 0.0570622 
262 1 3.09385 41.0214 0.342653 1.47591 
263 1 9.52928 42.2571 0.959779 0.0406366 
264 1 9.03855 44.9132 -1.98128 0.686964 
265 1 11.8849 42.9952 -0.751129 0.0755726 
266 1 17.5391 39.1386 -0.598967 1.24604 
267 1 19.0129 39.2696 1.34209 -1.24604 
268 1 26.812 45.3092 1.89744 -2.00729 
269 1 28.3561 40.1662 -0.941781 0 
270 1 27.3677 36.3588 -0.520228 0.0911829 
271 1 34.293 40.194 0.727973 -1.84049 
272 1 32.4857 40.2472 0.401883 0.167595 
273 1 32.1737 38.6382 -1.73912 1.21606 
274 1 45.8659 39.4546 0.878603 -0.194703 
275 1 45.2528 36.1195 0.961747 -0.88318 
276 1 43.7703 41.7689 -1.27719 0.344148 
277 1 55.9979 44.4367 1.54019 -1.30334 
278 1 54.9965 43.4995 1.20185 1.34269 
279 1 55.9478 37.2477 0.680196 26.4456 
280 1 60.4158 39.3966 -0.590678 0 
281 1 61.1785 49.2305 -0.00981968 2.73864 
282 1 6.42015 44.156 1.06446 -1.74772 
283 1 5.05857 44.3744 0.305085 1.7723 
284 1 2.96708 46.335 -1.98624 0 
285 1 12.7149 46.6126 0.421281 -0.0147584 
286 1 10.5431 45.3007 0.166866 -0.971966 
287 1 18.6433 47.3921 -0.864524 -0.158609 
288 1 25.6099 44.7893 -0.249693 2.29045 
289 1 26.6277 43.3715 0.994139 3.5599 
290 1 32.5765 42.2682 1.68923 -0.00754313 
291 1 32.2711 47.9757 -0.0055086 0 
292 1 28.3949 43.9068 -1.21974 -0.364842 
293 1 39.1919 45.1355 0.707161 2.17134 
294 1 39.4274 43.717 -0.580688 -0.203485 
295 1 40.3527 45.7458 -0.254441 -1.98924 
296 1 51.468 41.774 1.18625 5.63701 
297 1 52.8953 44.8914 0.661403 0 
298 1 49.8664 45.263 -1.68964 -0.0626372 
299 1 56.1534 47.6711 -1.07031 -0.720941 
300 1 60.4041 45.779 1.09531 -0.0656073 
301 1 63.0297 45.5855 -0.583431 0 
302 1 4.00051 40.2693 -0.421068 -1.47591 
303 1 5.72641 47.3463 -0.186578 0.0545397 
304 1 7.76424 46.205 -0.285836 0.166532 
305 1 12.174 48.879 1.16304 -1.60581 
306 1 15.2472 46.264 -0.536058 0 
307 1 18.1656 48.9215 -0.404427 0.171424 
308 1 19.9027 51.1483 0.43535 0.889035 
309 1 20.1007 45.8067 -1.5 -0.0741136 
310 1 34.7422 45.9464 1.88667 0.0536089 
311 1 29.2709 46.04 0.949277 -0.0259335 
312 1 36.1634 44.2194 -1.98292 -0.0536089 
313 1 42.2679 49.8805 0.804899 -0.435798 
314 1 36.7977 50.7987 -0.698648 0 
315 1 48.1307 46.6934 1.10778 0.0626372 
316 1 50.5144 41.3076 -0.0653741 -5.63701 
317 1 56.6761 50.3164 0.723009 -2.38245 
318 1 51.6779 50.3737 0.246235 0 
319 1 56.6029 41.2862 -0.22904 0 
320 1 61.0886 50.2143 -1.03657 -2.73864 
321 1 63.0572 52.4089 -0.576559 2.09932 
322 1 0.942193 51.8158 -1.20964 -2.11941 
323 1 10.2516 47.0782 0.782015 0.0675168 
324 1 11.047 49.1877 -1.78421 1.64054 
325 1 10.5937 56.7668 -1.69226 -0.404408 
326 1 14.2352 50.0611 0.295437 0.22922 
327 1 15.8367 49.1549 -0.843183 -0.21606 
328 1 21.304 53.3181 -0.143288 0.13525 
329 1 26.4327 47.1036 -0.488471 0.0525871 
330 1 22.2605 49.5558 -1.89417 -0.37131 
331 1 33.6866 54.1891 0.567358 0 
332 1 37.8552 53.9184 2.02325 -0.319363 
333 1 39.2348 53.4729 0.503106 -0.825461 
334 1 39.7512 52.1218 -0.104084 -0.213408 
335 1 39.2887 47.9211 -0.891816 0.0213843 
336 1 41.314 51.1856 -1.89694 0.143507 
337 1 55.4204 50.5603 1.10963 0.738661 
338 1 54.5331 47.7566 -0.451919 0.728518 
339 1 58.0862 45.7012 0.977386 0.0262611 
340 1 61.3269 54.0643 0.994975 0.162225 
341 1 0.365497 49.8194 0.52574 0.0388235 
342 1 4.25085 54.3867 1.32139 1.25648 
343 1 9.24556 54.8475 -0.0694187 -1.02182 
344 1 6.16787 50.9918 -1.2084 -0.0194097 
345 1 13.9609 56.0342 -0.411127 -0.537689 
346 1 11.6041 52.5679 -1.2308 0 
347 1 21.4575 50.9557 1.00977 -0.521416 
348 1 20.5626 56.8351 0.20048 -0.0403768 
349 1 23.63 56.9262 -1.34785 0 
350 1 30.5702 57.4847 0.746793 0.32663 
351 1 37.033 57.1587 1.45528 0.153312 
352 1 38.3926 55.947 0.499828 -0.48439 
353 1 41.1501 57.8551 0.140657 0.225829 
354 1 38.1592 57.6912 -1.44243 -2.17154 
355 1 47.6346 54.2629 1.08668 1.31555 
356 1 50.7992 53.7285 0.494653 -0.0794029 
357 1 48.5924 53.2898 -2.23289 -1.23615 
358 1 51.4943 57.005 -0.580386 0 
359 1 54.5953 49.6815 2.20198 1.63621 
360 1 0.190674 54.1991 1.33488 -0.180957 
361 1 5.04731 53.19 0.505282 0.925548 
362 1 5.94899 54.0007 2.80882 -2.16411 
363 1 4.19576 56.7189 -0.868583 0.00148812 
364 1 7.96877 55.5759 0.478143 1.20516 
365 1 13.6148 59.7889 -0.346741 0.198363 
366 1 18.5597 58.1945 1.25882 0.0403768 
367 1 18.7401 53.6345 1.01843 -0.0375175 
368 1 25.5982 58.9925 -0.875672 1.71251 
369 1 30.1589 50.6891 0.564811 0.0211237 
370 1 28.0663 55.9696 0.707279 0 
371 1 30.9797 52.8882 0.55952 -0.0211237 
372 1 35.8266 57.5366 0.348391 0.354605 
373 1 36.8012 54.7198 -1.2637 1.82748 
374 1 42.1281 54.9678 1.97354 0 
375 1 41.839 59.5432 0.128874 0.731302 
376 1 46.9712 58.6076 -0.132265 0 
377 1 55.3606 56.8434 1.29458 0 
378 1 52.3299 61.7261 -1.21013 0.0308491 
379 1 56.1316 53.2832 -1.83871 0 
380 1 1.12405 58.7745 -0.332345 -0.510517 
381 1 62.0978 60.7066 -0.61508 -0.316159 
382 1 2.12977 58.2969 1.92792 0.559514 
383 1 10.223 55.4023 2.33474 0.269013 
384 1 12.9625 57.2588 2.09738 0.489743 
385 1 17.3519 55.5093 -0.116765 0.0375175 
386 1 21.6472 59.2446 1.76876 0.564297 
387 1 23.3338 53.8078 0.995141 -0.131559 
388 1 21.9805 60.5073 -1.09448 -0.564297 
389 1 23.6127 62.9698 0.328252 0.369844 
390 1 27.4935 63.2891 1.50506 -0.162375 
391 1 31.1961 58.9723 -1.61429 0.200372 
392 1 30.1176 60.9828 -2.72213 -3.28406 
393 1 32.8291 58.5144 -0.68596 -0.456504 
394 1 40.2645 0.387011 -0.279254 -0.386753 
395 1 40.5041 60.4067 -1.71428 0.687532 
396 1 43.0458 58.8681 -2.31335 -1.64466 
397 1 49.7743 59.8912 -0.24618 0 
398 1 56.1502 61.9762 1.65565 -3.72663 
399 1 58.1708 58.9579 1.21546 0 
400 1 63.0592 61.2741 0.639143 0.316159 
