ITEM: TIMESTEP
300
ITEM: NUMBER OF ATOMS
400
ITEM: BOX BOUNDS pp pp pp
0.0000000000000000e+00 6.3245553203367592e+01
0.0000000000000000e+00 6.3245553203367592e+01
-3.1622776601683800e-01 3.1622776601683800e-01
ITEM: ATOMS id type x y vx fx 
1 1 61.4393 62.7802 -1.62456 0.386799 
2 1 3.99181 0.936016 1.62311 -1.8231 
3 1 5.09859 61.8921 -0.817312 0 
4 1 10.3743 2.6028 0.706511 1.18944 
5 1 13.6657 61.8378 0.677752 0 
6 1 15.4509 1.39849 -1.86258 0.450966 
7 1 18.7825 62.4623 -1.58396 0 
8 1 22.3213 62.943 1.58006 0 
9 1 26.4063 1.33094 -0.120505 -0.0609155 
10 1 27.4038 62.6164 0.134095 -0.0766418 
11 1 29.4213 61.0289 -1.46764 0 
12 1 32.8613 63.2375 -1.28252 0 
13 1 36.4261 61.145 -1.04229 -0.132886 
14 1 39.8477 1.58857 -0.921025 0.0455253 
15 1 42.5417 0.284968 -1.23772 0.00961826 
16 1 48.4067 0.556152 0.707351 0.143851 
17 1 50.1551 62.2667 1.57776 -0.0451563 
18 1 55.3894 61.901 0.780793 -1.70801 
19 1 57.2756 2.1254 0.255724 0.145753 
20 1 60.5355 1.92176 0.9014 -0.553092 
21 1 0.886046 2.30004 -1.65342 0.108624 
22 1 2.9779 1.72404 1.05151 1.72284 
23 1 7.85585 4.04282 1.02853 0.0654906 
24 1 10.3015 3.61891 0.427403 -1.22983 
25 1 13.984 1.69994 0.982961 1.14509 
26 1 16.4991 2.22988 -0.154031 -1.46501 
27 1 18.4979 2.82332 1.8245 -0.131043 
28 1 21.0655 3.20084 -0.88772 0 
29 1 25.7909 3.07162 0.343517 0.103876 
30 1 30.1476 1.89029 1.12476 0 
31 1 32.5419 4.28786 0.621094 -0.00185352 
32 1 36.7407 3.68935 1.12244 -12.438 
33 1 37.3955 2.91835 -0.186534 12.438 
34 1 39.9992 3.29309 -0.660496 -0.0455253 
35 1 45.5768 3.97811 1.09854 9.69814 
36 1 47.2174 4.30946 -0.192699 -0.513905 
37 1 49.8775 2.03721 -0.494324 -0.106161 
38 1 53.1602 2.56014 -0.399 0 
39 1 55.6068 5.23876 -0.322629 1.16657 
40 1 59.186 2.85531 -1.21742 0.407339 
41 1 1.18242 4.60114 0.849479 0.149372 
42 1 2.63336 5.91047 -0.41421 -0.157735 
43 1 8.76606 6.18427 1.67927 -0.0358758 
44 1 8.2151 8.55085 -0.90621 0.0107753 
45 1 15.3339 7.03083 1.72946 -0.82043 
46 1 14.0805 7.9199 -1.0936 0.82043 
47 1 18.7604 8.12463 0.708947 -4.67364 
48 1 21.6682 5.6366 -0.137759 0 
49 1 26.3188 6.37317 -0.775763 0.767474 
50 1 29.6382 6.063 0.829435 0.292182 
51 1 33.7458 8.67954 1.33824 0.271745 
52 1 32.5272 6.2051 -1.70538 -1.2273 
53 1 40.5039 6.47632 1.59244 -0.0196148 
54 1 40.4795 7.96757 -0.108093 1.52204 
55 1 44.604 4.35559 0.132797 -9.11691 
56 1 49.5282 4.31046 1.31205 -0.0567643 
57 1 49.1172 7.93233 -1.46124 0.443241 
58 1 53.3427 6.41714 -0.277324 0 
59 1 57.081 4.9585 -0.356928 -0.896611 
60 1 58.7875 5.75323 -0.954822 -0.248044 
61 1 1.12314 8.61261 0.758533 0.0744514 
62 1 4.39355 11.0468 0.622589 -0.238781 
63 1 5.49614 7.94262 -0.552277 0 
64 1 7.09605 11.182 -1.59385 0 
65 1 13.2665 11.068 0.274195 -0.0270179 
66 1 18.0145 9.71394 0.563519 1.03054 
67 1 19.3774 8.97882 0.323246 3.6431 
68 1 22.7604 10.6836 0.320663 0.00716025 
69 1 25.7417 8.14248 -0.800097 0.212952 
70 1 27.606 7.20459 1.98778 -0.925145 
71 1 31.2329 6.8663 -0.00906347 0.881692 
72 1 35.285 9.67952 -0.671318 -0.0416719 
73 1 36.4552 8.29886 -0.0219954 -0.230074 
74 1 41.3651 8.92643 -0.00708829 -1.50243 
75 1 43.8972 9.44796 1.16382 0.291325 
76 1 46.0169 9.20037 -0.996608 -0.410966 
77 1 49.9426 9.28031 0.106201 0.031502 
78 1 51.6511 9.54623 -1.47783 -0.474743 
79 1 56.7115 7.27632 -0.138643 -0.0219109 
80 1 62.0026 11.0794 1.27955 0 
81 1 60.942 14.7369 -1.52709 0.13154 
82 1 2.88673 9.936 0.00441059 0.154182 
83 1 5.94463 14.0231 1.9284 -1.35565 
84 1 9.65312 15.083 0.10497 -0.0641718 
85 1 10.8794 9.94569 -1.02848 0 
86 1 13.2018 12.7032 -1.77832 0.00692039 
87 1 19.1301 13.7407 0.655473 -0.0643566 
88 1 23.0686 13.0413 0.717457 -0.00716025 
89 1 25.5435 10.9236 0.423458 0.6228 
90 1 26.1051 12.2252 -1.83015 -0.6228 
91 1 29.1032 13.2984 -2.26441 1.76522 
92 1 36.9979 14.2453 1.47525 0 
93 1 38.8904 10.6824 0.628701 0 
94 1 42.9354 11.2866 -0.0477412 0.113763 
95 1 45.2678 10.6701 0.544385 0.0058781 
96 1 48.3531 14.4571 0.681853 0.0825337 
97 1 48.4869 13.3286 -1.4756 -0.0825337 
98 1 55.1913 13.2122 1.21146 -0.277004 
99 1 55.0189 14.376 -1.52309 0.296217 
100 1 58.0539 13.7965 -0.89918 0 
101 1 0.11534 16.1993 -0.00198525 -0.513143 
102 1 3.9002 13.4104 -1.15675 0.21871 
103 1 5.23482 14.9766 -1.2591 1.14709 
104 1 7.76634 16.338 -0.207758 0.121645 
105 1 13.1638 14.2872 0.404337 0.0200975 
106 1 13.3377 16.7865 -1.68566 0 
107 1 16.9852 14.5772 -1.87684 0.0643566 
108 1 21.0842 18.2804 -0.699146 0.018602 
109 1 25.2653 16.867 0.00952558 0.094233 
110 1 27.291 17.6671 -0.667592 0.435494 
111 1 30.4417 13.6162 -0.202627 -1.76522 
112 1 35.6394 16.8277 0.569533 0 
113 1 39.0881 16.8975 1.68317 -1.57827 
114 1 42.0327 16.6929 0.818802 0.0502398 
115 1 43.8873 17.935 -0.146156 0.491149 
116 1 44.9034 16.4293 -1.77992 -0.173615 
117 1 51.7833 15.4551 0.791236 0 
118 1 55.7375 16.5986 1.31144 -0.0458275 
119 1 58.6343 16.3775 0.695686 0.0549586 
120 1 61.6652 16.4162 1.47376 0.0586734 
121 1 61.2954 17.8414 -1.15931 0.2218 
122 1 1.28986 21.2757 -1.51329 -4.42464 
123 1 7.56053 18.7709 -0.362536 0.361203 
124 1 8.54574 18.22 -0.370647 -0.362762 
125 1 13.3414 21.5384 -0.692839 -0.226423 
126 1 15.3977 18.9429 0.846371 0 
127 1 18.4531 19.8564 -0.304435 0.396221 
128 1 21.4152 20.3808 0.10788 0.0456519 
129 1 26.1207 21.2797 0.485855 0.0688665 
130 1 28.7487 18.4778 0.0485514 -0.529727 
131 1 32.1967 18.8212 0.382604 0 
132 1 36.7653 19.303 0.735025 0.0672819 
133 1 38.2167 17.7159 -0.749771 1.5037 
134 1 41.5294 18.8454 0.113346 0.0208222 
135 1 45.6524 20.6283 0.567714 -0.0104051 
136 1 45.5308 18.6167 -0.970672 -0.37819 
137 1 49.3994 16.9033 -0.798057 0 
138 1 54.3293 18.5917 0.386728 0.0266142 
139 1 58.3147 20.0948 0.902068 -0.0088016 
140 1 59.1661 18.2714 -1.12985 -0.0275111 
141 1 1.85916 22.1594 1.525 4.54513 
142 1 3.16293 23.6701 -1.8944 0.534585 
143 1 8.47343 22.5107 1.14072 -0.022242 
144 1 8.3366 20.6604 -0.478535 -0.0336731 
145 1 12.2703 24.0449 0.652662 0.394398 
146 1 18.2068 21.6922 1.74388 0.85151 
147 1 17.0919 23.8498 -1.40511 -0.183814 
148 1 19.6229 21.0368 -2.3346 -1.03544 
149 1 23.2731 20.3461 -1.32773 -0.298431 
150 1 27.6669 22.8307 -0.681443 -0.822102 
151 1 30.1775 22.944 -0.963491 0 
152 1 37.4446 22.843 2.51959 -0.693703 
153 1 36.4787 21.6364 -0.117511 0.614702 
154 1 40.3018 23.3804 -0.535875 0.0365164 
155 1 43.1776 24.5058 -1.09012 -1.61451 
156 1 48.956 22.1912 0.932495 -8.16756 
157 1 51.7181 21.8642 0.74775 0 
158 1 54.3977 23.7876 0.42596 0 
159 1 56.1446 20.7778 -0.457313 0.108478 
160 1 58.078 22.2612 -1.34855 -0.0259945 
161 1 1.19518 26.7883 0.773859 -0.0559291 
162 1 4.81492 26.6765 1.12202 0 
163 1 4.80706 23.569 0.84237 -0.655079 
164 1 10.1888 27.4599 0.696631 0 
165 1 13.1434 22.6814 -0.497593 -0.0560468 
166 1 15.3848 22.9524 -0.254913 0.0937743 
167 1 20.3869 26.4564 0.635077 0.361999 
168 1 20.6538 24.995 -0.610168 -0.146389 
169 1 26.7504 23.998 0.0755426 1.01929 
170 1 28.0274 25.2692 0.753247 -0.229223 
171 1 31.3839 25.2506 -0.128002 0.115433 
172 1 36.0345 24.4037 -0.183384 0.0862857 
173 1 38.9666 25.8258 0.531658 1.92135 
174 1 41.885 26.2903 3.25188 -2.25132 
175 1 41.9334 25.1253 -1.4858 1.48419 
176 1 49.3156 23.1273 1.33632 8.16756 
177 1 51.4913 25.1374 0.596565 0 
178 1 53.2295 27.8093 -0.267859 -0.449674 
179 1 56.6827 26.2756 1.39995 0 
180 1 61.4344 25.6988 1.35763 0.490084 
181 1 62.0847 27.0565 0.351436 -0.434155 
182 1 4.01017 30.8817 0.651602 -0.312765 
183 1 6.3552 29.1203 1.33498 0 
184 1 7.67383 26.0989 -1.43736 0 
185 1 13.0657 28.7835 0.323581 0.16137 
186 1 17.3083 26.4615 0.997953 0 
187 1 18.3444 30.6768 0.0552091 1.62629 
188 1 22.452 26.287 0.139835 -0.215609 
189 1 23.4862 29.8968 -1.1003 0.278195 
190 1 29.2448 27.2204 0.539625 0.0558753 
191 1 32.7164 27.9991 0.812103 -1.39165 
192 1 31.9806 26.9633 -1.99982 1.24875 
193 1 40.0927 26.1928 -0.545698 -1.44325 
194 1 42.8806 26.7399 -0.551805 2.71393 
195 1 43.9223 27.2024 1.17305 -0.846908 
196 1 45.4372 30.2443 -1.24885 0.240565 
197 1 48.6197 27.8664 -1.31782 0 
198 1 54.8721 28.4646 -0.94497 -0.44726 
199 1 55.4638 30.79 -0.890854 0.0505677 
200 1 59.5716 27.5703 -1.90534 -0.0761825 
201 1 61.8571 29.6701 -0.92565 0 
202 1 2.16551 30.8373 -2.0654 0.312765 
203 1 6.02408 33.0843 -0.199338 0.0185299 
204 1 10.9885 31.7818 1.00112 0 
205 1 14.4726 30.1206 1.16984 -0.16137 
206 1 15.0048 33.9251 -0.453756 0.0494168 
207 1 19.7266 30.951 0.559286 -0.600429 
208 1 20.608 31.6931 -1.55063 -1.02586 
209 1 25.2059 30.5963 -0.169258 -0.278195 
210 1 29.8939 28.992 1.06075 0.364943 
211 1 31.2744 29.9648 -0.340646 -0.430174 
212 1 36.0605 30.0929 1.14909 1.47762 
213 1 37.1531 30.9183 -0.82829 -1.47762 
214 1 39.977 31.9948 -0.755086 0 
215 1 46.7908 31.4824 1.63098 -0.518428 
216 1 45.4641 32.6907 -1.34755 0.277863 
217 1 51.2261 32.6632 0.472737 0.341916 
218 1 52.6792 29.0299 -0.656995 0.909724 
219 1 58.3261 29.2655 0.869138 0.0761825 
220 1 59.4476 31.5535 -0.446107 0 
221 1 61.879 33.62 -0.909299 0.026781 
222 1 3.73693 35.6019 -0.0214742 -0.804065 
223 1 5.71526 37.0834 0.354751 0.0478141 
224 1 11.2651 35.8711 -0.0400996 1.80799 
225 1 12.2047 36.6493 0.929341 -1.80799 
226 1 17.4155 33.772 1.01236 0.120572 
227 1 19.0317 34.8855 -0.352561 -0.0266138 
228 1 23.5688 33.6925 0.602047 0.527294 
229 1 23.9278 34.9916 -0.560393 -0.527294 
230 1 30.4846 36.2484 1.47149 0.333813 
231 1 30.2367 34.2667 -1.01737 0.0227655 
232 1 32.2859 36.0898 -1.69486 -0.356578 
233 1 37.5772 35.4588 -1.91482 -0.84661 
234 1 41.0941 35.7179 1.44925 0 
235 1 44.0525 35.4797 -0.266548 0.290159 
236 1 45.9935 35.8471 -0.663535 1.61258 
237 1 51.4199 35.9761 0.586599 0.279032 
238 1 53.0044 33.0272 -0.555803 -0.341916 
239 1 56.2519 32.6623 -0.451026 -0.063358 
240 1 60.996 36.6916 0.596544 0.00624541 
241 1 0.000678729 35.6281 -1.41088 -0.0631559 
242 1 2.62816 35.868 1.49333 0.837865 
243 1 6.6468 35.3032 -0.576921 -0.100144 
244 1 8.49923 37.7032 -0.664428 0 
245 1 12.704 39.2281 0.0365884 0 
246 1 14.8741 37.0718 -0.624871 0 
247 1 19.8675 36.5274 0.96027 -0.143375 
248 1 21.7775 40.2409 -0.355746 -24.0827 
249 1 22.7772 40.2634 -1.57589 24.0074 
250 1 27.5349 40.094 -0.578682 0.708143 
251 1 29.7881 39.8611 -1.45128 -0.602983 
252 1 36.6743 36.1642 1.55264 0.830431 
253 1 36.4228 38.2391 -1.12433 -0.0687052 
254 1 42.0401 40.4875 -0.33613 0.402623 
255 1 44.4088 37.1788 0.289735 -0.12007 
256 1 47.2236 36.3565 -0.531528 -1.91665 
257 1 52.9397 39.655 1.69269 -2.30844 
258 1 52.9697 36.9508 -0.593902 -0.279032 
259 1 56.7274 37.0192 -0.130636 -0.00723126 
260 1 59.0774 38.291 -0.635651 0.0927098 
261 1 1.62003 39.3434 1.08002 0 
262 1 3.20818 41.4481 0.030602 0 
263 1 7.64378 41.5459 0.900553 0.0568757 
264 1 9.54297 42.8481 0.0163522 -0.0568757 
265 1 13.4348 41.6787 -0.776165 0.0427271 
266 1 15.5871 40.5607 1.15039 -0.0427271 
267 1 19.9086 41.4356 -1.13428 0.0752593 
268 1 24.1683 43.407 1.29224 -0.0396008 
269 1 27.7548 41.3381 2.1164 -0.416507 
270 1 28.8407 38.7852 -1.07261 0.762985 
271 1 31.5092 40.1212 1.43925 -0.454975 
272 1 33.3325 42.2457 -0.585259 -0.0474995 
273 1 35.3651 39.9741 -1.69815 0.0848842 
274 1 43.6758 39.8613 1.33942 -2.83989 
275 1 43.8711 38.8487 1.07392 2.52848 
276 1 45.9366 41.022 -0.998401 0 
277 1 52.813 42.6382 0.883029 0.0204837 
278 1 53.2605 40.6592 0.161683 2.27212 
279 1 56.5624 39.2074 -0.237453 0.00723126 
280 1 60.688 39.8307 0.380787 -0.0625803 
281 1 61.29 46.0274 -1.36701 18.551 
282 1 4.08372 44.6161 0.297862 2.59856 
283 1 5.60231 43.428 -0.557484 -0.183343 
284 1 7.17399 45.5994 -2.30452 1.53667 
285 1 11.9285 45.638 -0.263653 0.949331 
286 1 13.5268 45.7732 -1.12941 -0.952649 
287 1 19.2826 46.5518 0.201052 -0.0184335 
288 1 22.1531 43.0669 1.86632 0.154527 
289 1 26.2606 42.995 0.148327 -0.0574665 
290 1 29.586 42.7405 0.743196 -0.0541228 
291 1 32.3794 45.4026 0.297341 -1.42103 
292 1 31.9301 44.0272 -2.22907 0.239619 
293 1 38.7459 45.6728 0.352938 -0.264436 
294 1 41.412 42.4652 0.246778 0.0532151 
295 1 41.7987 44.7655 -1.69113 -0.0104585 
296 1 49.6766 43.6356 1.36681 -0.813722 
297 1 52.1359 44.9155 0.403581 1.78952 
298 1 53.4537 45.2921 -1.75164 -1.60606 
299 1 55.4091 45.7779 0.47533 0.0738578 
300 1 60.318 45.748 0.223509 -18.551 
301 1 0.951017 46.2926 -0.583431 0 
302 1 3.00559 44.7821 1.5017 -2.41522 
303 1 6.07192 47.5689 -0.162571 0.038692 
304 1 8.31343 46.3486 -0.0254957 -1.57537 
305 1 13.368 46.9149 -0.131182 0.00331784 
306 1 16.3228 48.5233 1.28535 -2.7361 
307 1 18.5259 48.7909 -0.680787 -1.6343 
308 1 21.1575 49.3416 -1.00449 0.491418 
309 1 23.0716 46.7357 -1.4844 0 
310 1 30.8367 45.4284 1.68111 1.12404 
311 1 29.7521 47.0897 -1.1943 0.104864 
312 1 36.5881 47.5712 1.2731 0.189658 
313 1 40.0841 48.2529 1.40203 -0.160006 
314 1 38.5025 47.0742 -1.54875 0.234785 
315 1 45.9255 47.1168 1.10244 0 
316 1 48.8023 44.8023 1.04023 0.813722 
317 1 53.1898 48.7978 2.00671 3.69437 
318 1 52.378 48.0923 -0.234876 -3.17063 
319 1 57.0007 44.7923 -0.155734 -0.241492 
320 1 61.1702 49.0423 0.724643 0 
321 1 63.2067 52.976 2.39794 0.276584 
322 1 2.5065 51.672 -0.485741 -0.161591 
323 1 8.25202 50.1364 1.48868 0.839658 
324 1 10.2047 50.7057 0.350937 -0.793674 
325 1 11.2605 53.0565 0.0331996 0 
326 1 15.0855 49.3971 -1.09194 1.02239 
327 1 17.1796 49.1982 -1.14515 3.36644 
328 1 21.5846 50.6842 -0.016009 -0.530368 
329 1 26.4472 48.3596 0.857191 -0.0385424 
330 1 25.8821 50.3557 -1.81012 0.0385424 
331 1 32.5257 52.127 0.601966 0 
332 1 36.3153 50.8408 0.961652 0 
333 1 38.5328 52.3096 0.439949 0.161166 
334 1 40.5889 52.8412 -0.525741 1.23966 
335 1 41.8437 50.0296 -1.61877 0 
336 1 44.8571 50.7368 -1.71803 0 
337 1 52.6943 50.2831 1.45613 0.310657 
338 1 54.7722 49.0009 0.55179 -0.834395 
339 1 57.7874 48.2794 0.577607 0 
340 1 60.0269 52.8353 0.227328 1.40675 
341 1 0.318565 51.6412 -0.66549 -0.361828 
342 1 2.11326 53.4869 -0.741874 0.408892 
343 1 7.08438 54.7855 1.15535 2.63147 
344 1 8.65733 51.2475 -1.58801 -0.0459844 
345 1 14.084 55.5598 1.00757 0.0484514 
346 1 14.0584 53.1741 -1.216 0.000577586 
347 1 19.2407 51.495 0.178655 0.0389501 
348 1 20.5982 55.4396 -1.12899 -0.811378 
349 1 25.6622 55.2741 0.538592 0.437272 
350 1 29.1721 55.7987 0.729151 -0.343039 
351 1 33.3329 56.2182 1.255 0.153534 
352 1 36.457 54.4609 1.11465 -0.00521305 
353 1 40.2934 53.8701 1.7417 -1.71052 
354 1 40.5837 55.846 -0.896677 -2.08459 
355 1 45.708 53.9786 0.957423 0 
356 1 49.3554 53.7402 1.52221 0.622257 
357 1 50.0015 52.4419 -0.638057 -0.622257 
358 1 52.7268 54.9985 -0.692579 -0.00210568 
359 1 54.6977 52.1605 -1.48218 0 
360 1 61.3605 53.3265 -0.894652 -1.1848 
361 1 2.34052 54.6797 1.77473 0.223846 
362 1 3.43704 55.7837 -0.00752495 -0.65785 
363 1 6.73304 55.784 0.0352234 -10.4895 
364 1 7.68813 56.2129 -1.61163 7.88067 
365 1 13.0057 58.2253 0.580528 0.161933 
366 1 16.6882 57.0689 0.546417 -0.209892 
367 1 19.1115 55.9434 0.206572 0.838641 
368 1 24.0692 59.332 1.97863 -0.971932 
369 1 27.7338 54.463 1.55285 -0.149809 
370 1 27.2944 55.998 -1.23655 0.130327 
371 1 31.1754 54.7974 -0.418854 -0.0747513 
372 1 34.9602 57.3743 -1.19431 0.155911 
373 1 36.3661 56.5796 0.216971 -0.641678 
374 1 39.5023 55.2983 -0.574105 2.39429 
375 1 43.1178 58.0997 -0.769413 0 
376 1 47.2358 57.6438 -0.132265 0 
377 1 52.6996 57.0392 1.40677 0.00210568 
378 1 54.8906 59.4022 -0.033826 -37.5645 
379 1 58.5725 54.569 1.10364 0.0499988 
380 1 61.5953 58.3984 1.05741 0.322461 
381 1 62.1295 61.3688 -0.44223 -0.456604 
382 1 2.68347 59.3369 -0.319206 0 
383 1 8.08454 58.297 1.17412 -0.022678 
384 1 10.6936 58.6422 0.813611 0.0590715 
385 1 14.7872 57.5053 1.10793 -0.0601418 
386 1 18.282 59.1372 1.64706 0 
387 1 21.0899 57.5121 1.39998 -0.027263 
388 1 22.7924 60.0831 -0.196223 1.1472 
389 1 24.7902 61.0847 -0.233155 0.615475 
390 1 26.3011 60.6013 -1.59544 -0.757065 
391 1 33.3614 58.1403 1.03893 0.267229 
392 1 32.9277 59.8658 -1.08912 0.0971539 
393 1 35.5875 59.4831 -1.54919 0.105949 
394 1 40.6615 61.6362 -0.266644 0.112333 
395 1 42.781 61.3249 -0.94175 -0.121951 
396 1 47.1928 60.728 -2.05232 0 
397 1 50.2667 59.9443 -0.246495 -0.00309715 
398 1 54.4984 61.0591 0.888912 2.00156 
399 1 55.8305 59.6574 -0.0280342 37.271 
400 1 62.0261 59.8424 1.36445 -0.252656 
