ITEM: TIMESTEP
900
ITEM: NUMBER OF ATOMS
400
ITEM: BOX BOUNDS pp pp pp
0.0000000000000000e+00 6.3245553203367592e+01
0.0000000000000000e+00 6.3245553203367592e+01
-3.1622776601683800e-01 3.1622776601683800e-01
ITEM: ATOMS id type x y vx fx 
1 1 56.6534 1.73266 -2.21332 0.469922 
2 1 8.03986 62.9762 1.93269 1.74606 
3 1 2.53147 59.0577 -1.28839 -2.48561 
4 1 12.3938 3.28245 0.648392 0.0706945 
5 1 16.6577 58.7155 1.09878 -0.0732965 
6 1 13.4777 1.54766 -0.740685 -0.0825423 
7 1 14.4544 62.1295 -1.16522 -0.0221166 
8 1 26.1145 62.8781 -0.538742 0.378223 
9 1 27.1582 0.934437 0.808864 -0.390844 
10 1 26.1415 59.9466 -0.882753 -0.0424239 
11 1 26.0328 56.1109 -0.459256 0 
12 1 30.4455 62.6588 -0.262645 -0.611915 
13 1 34.7491 55.8956 -1.23936 1.47861 
14 1 38.6762 62.9607 0.338995 0.116678 
15 1 38.7472 5.04595 -1.52371 -1.79207 
16 1 48.1723 61.9213 -0.273872 0.0665866 
17 1 55.0532 0.988307 1.93793 1.25122 
18 1 58.2098 61.8799 0.750377 -0.531016 
19 1 55.5914 2.05704 -0.607438 -3.54385 
20 1 58.7967 2.39023 0.29777 -0.227838 
21 1 0.665324 3.21092 -0.0775775 0.873645 
22 1 6.941 62.9818 0.740301 -1.68545 
23 1 11.9009 6.20611 1.83682 -3.35226 
24 1 12.2848 5.23384 0.253752 3.45698 
25 1 10.3189 62.4567 -1.32465 -0.0606106 
26 1 19.1252 61.9247 1.08253 0.394953 
27 1 23.8574 3.69057 -1.10174 0.251626 
28 1 17.2898 0.482844 -1.33668 0 
29 1 25.58 2.94004 2.02375 1.79226 
30 1 32.9518 2.03595 0.810048 0 
31 1 35.4303 3.8462 -0.239704 0.256381 
32 1 37.4642 5.7855 0.0533008 0.95109 
33 1 36.4843 1.93872 -0.669365 -0.0487882 
34 1 39.7521 8.43855 0.515843 0 
35 1 46.2023 4.30299 0.762154 0 
36 1 48.875 6.11807 0.593181 0 
37 1 52.2308 2.67822 1.90731 -0.0383476 
38 1 53.1253 2.00347 -0.0437937 0.721779 
39 1 53.8509 9.88574 -0.842834 0.0523321 
40 1 60.5617 4.55979 1.07618 0 
41 1 3.93212 1.94105 0.952893 0.232222 
42 1 1.208 4.41616 0.374792 -0.866923 
43 1 9.55126 9.97551 -2.59161 -1.45273 
44 1 5.68224 12.7214 -0.720526 -0.112231 
45 1 20.6283 11.0333 1.8596 0 
46 1 12.4018 7.95976 0.216655 -0.112992 
47 1 21.6554 5.70221 1.03655 0.196457 
48 1 19.8881 7.98598 -2.18178 -1.82688 
49 1 23.5995 6.03771 -0.529908 -0.22105 
50 1 26.7473 3.19277 -0.756044 -2.09137 
51 1 33.7259 9.65593 -0.202116 -0.0178493 
52 1 31.5481 6.04501 0.414431 1.47841 
53 1 42.8565 7.25229 -1.36346 4.26264 
54 1 42.1077 6.48975 1.36205 -3.46811 
55 1 46.0412 1.01547 0.613258 -0.0572123 
56 1 50.1148 0.0741359 -2.15262 0.187142 
57 1 49.6091 8.60156 -0.625084 2.08138 
58 1 52.8173 6.65561 -0.00907946 0.208028 
59 1 54.6108 2.80239 -1.09149 1.4758 
60 1 57.095 3.46034 -1.75936 -0.0584318 
61 1 1.26483 6.34859 -0.189819 -0.00672169 
62 1 3.34149 12.2498 0.710129 1.06198 
63 1 4.89499 3.41656 0.236503 -0.232222 
64 1 7.54966 15.2554 1.64754 -0.6688 
65 1 11.9976 10.081 0.74609 -0.0248979 
66 1 18.9429 14.8041 -0.253039 -6.37965 
67 1 18.9074 8.71242 0.127615 1.88768 
68 1 22.1951 8.3785 -1.67541 -0.972984 
69 1 23.2421 8.01815 1.08199 1.0405 
70 1 32.8484 7.40291 1.7104 0.504283 
71 1 32.6629 6.34133 -0.168191 -1.96484 
72 1 37.3917 15.0465 0.893233 0 
73 1 37.3223 4.3266 1.64994 0.63339 
74 1 43.1507 8.54462 0.407522 -0.498888 
75 1 44.3559 2.53108 -0.255675 0.0572123 
76 1 44.147 5.87319 -0.179241 -0.29564 
77 1 46.1149 10.8481 -0.495018 -1.34344 
78 1 50.6962 9.21939 1.75192 -2.08138 
79 1 54.1671 7.94721 -1.24914 -0.241096 
80 1 62.3366 10.1511 -2.20838 0 
81 1 60.9511 19.1149 1.65977 0.0597876 
82 1 4.04717 6.51932 0.150076 0 
83 1 8.39366 10.0368 0.554851 1.49774 
84 1 7.01531 19.9087 -1.7926 0.0413763 
85 1 8.30657 3.85143 -0.552311 0 
86 1 13.4957 12.5351 0.579953 -0.333919 
87 1 22.51 14.4383 0.636255 -22.756 
88 1 25.2896 18.1947 0.94169 -1.55157 
89 1 24.1735 9.86882 -0.133485 1.11984 
90 1 25.6494 10.0349 0.080508 -1.21724 
91 1 23.1306 13.6821 -0.94434 22.756 
92 1 40.945 13.6918 1.24637 0.231405 
93 1 37.1777 11.2605 -0.980353 0 
94 1 42.8687 13.5471 0.0783363 -0.0281883 
95 1 45.3797 9.80363 -1.50079 1.34344 
96 1 48.5945 13.2742 0.365156 0.0640696 
97 1 45.5655 15.1424 0.580147 -0.769304 
98 1 58.9642 14.3287 1.33503 0 
99 1 55.0858 15.4172 0.437423 0.0184375 
100 1 54.4044 12.0764 -1.3218 -0.0192633 
101 1 62.7563 16.4964 0.0861216 -0.260371 
102 1 2.4297 11.6214 0.304052 -0.794624 
103 1 3.60234 13.7388 1.02292 -0.155126 
104 1 8.59588 16.8176 -0.109593 -0.377245 
105 1 10.8477 17.259 -1.48391 -0.308157 
106 1 10.6742 18.6128 0.00473757 0.238819 
107 1 12.2602 13.7538 -1.11874 0.333919 
108 1 19.4667 19.561 -0.657893 14.3249 
109 1 25.6374 19.208 0.0100233 1.56975 
110 1 26.223 21.4244 -0.357068 -0.0181737 
111 1 28.9989 10.1304 -0.496393 0 
112 1 33.8132 15.5058 -1.01337 0 
113 1 41.1974 18.3262 -1.10345 -1.64002 
114 1 43.9653 15.0148 0.652067 1.65439 
115 1 43.2606 21.9717 1.36603 0.839862 
116 1 42.712 19.4063 1.18104 -0.241207 
117 1 50.1589 14.84 -1.25211 -0.0640696 
118 1 56.119 18.509 -0.650034 -1.42165 
119 1 56.2437 21.2834 -2.42576 0.723274 
120 1 1.56862 15.5555 -0.561129 -0.0707944 
121 1 62.4317 17.8963 0.504376 0.144648 
122 1 61.756 22.4027 -0.217802 10.6095 
123 1 2.96502 18.982 -1.70087 -0.0237184 
124 1 6.77382 16.4545 -0.740331 1.11538 
125 1 13.8869 16.7978 0.378313 1.33518 
126 1 17.8276 18.426 0.702057 0.29869 
127 1 15.0033 17.642 -1.02879 -1.33518 
128 1 23.2926 20.5361 0.341209 0.118565 
129 1 24.9697 23.9475 -1.14874 0.337107 
130 1 27.5571 17.0519 -0.479557 0 
131 1 33.3445 18.5163 0.382604 0 
132 1 38.5338 19.4349 0.754616 0 
133 1 40.2159 17.5531 -0.0822435 1.88123 
134 1 41.6429 22.2034 -0.766804 0.682903 
135 1 47.188 25.133 0.418153 0 
136 1 42.8959 15.2958 -1.39052 -1.08831 
137 1 48.7274 19.3181 0.146158 0.27274 
138 1 55.4014 17.5094 0.803016 1.37034 
139 1 61.061 20.2132 1.18349 0.147949 
140 1 55.1744 21.5757 0.715781 -6.5372 
141 1 2.50775 21.9353 -0.192658 -1.36418 
142 1 1.51304 20.9993 -0.959449 1.3879 
143 1 12.0121 24.5458 1.20836 0 
144 1 11.6311 21.7028 1.29923 0 
145 1 14.6245 28.2922 0.665559 -0.0569394 
146 1 16.2702 24.5924 -1.5044 1.79765 
147 1 12.706 27.4307 -1.34609 0.117553 
148 1 18.5873 20.0745 -0.572775 -14.6236 
149 1 19.113 15.7663 -1.24298 6.37965 
150 1 30.5011 19.7401 1.23059 0 
151 1 28.2981 24.4393 0.0820463 -0.550481 
152 1 44.5985 21.5218 1.39355 -1.42319 
153 1 36.364 20.7723 -0.0349199 0 
154 1 38.6713 23.6256 -0.294785 0 
155 1 42.9283 25.0215 -0.672172 -1.6489 
156 1 50.5285 18.806 0.303013 -0.27274 
157 1 54.3537 20.6233 -0.342555 -13.5669 
158 1 55.7799 27.0316 0.529731 -0.0217579 
159 1 55.3767 20.5711 -0.0711274 17.6553 
160 1 53.7172 21.9875 -2.27991 2.56471 
161 1 3.38981 29.9369 0.502704 -0.143939 
162 1 8.53096 29.4234 1.66485 0.948932 
163 1 7.98551 21.8855 1.62458 -0.0413763 
164 1 12.3132 31.2342 0.80546 0.281856 
165 1 8.86155 26.8176 -1.44069 0 
166 1 13.5441 19.8048 -0.862417 0 
167 1 22.4255 29.7273 0.546662 -0.133871 
168 1 20.9536 24.222 -0.906781 0 
169 1 26.617 24.6269 1.60498 0.185666 
170 1 27.9375 30.3141 -0.191697 0.0673486 
171 1 33.1266 21.2554 0.948974 -1.62355 
172 1 36.2927 29.1448 0.562067 0.401901 
173 1 38.9 27.7453 -0.115019 0.0316758 
174 1 38.004 29.4738 -0.401815 0.00540335 
175 1 41.7948 24.7845 1.14426 0.270321 
176 1 54.28 23.1655 1.68017 -0.450588 
177 1 53.2832 24.5299 0.709253 0.329153 
178 1 55.2864 29.1682 -0.375432 0.132222 
179 1 60.9537 23.0461 0.682081 -10.8355 
180 1 60.4863 24.6034 -1.48516 -0.0700663 
181 1 63.0341 28.7797 0.265527 0.136148 
182 1 1.36444 30.0319 -1.38553 0.0291161 
183 1 10.0581 29.1687 0.811204 -0.948932 
184 1 5.8183 23.3716 0.49893 0 
185 1 14.6763 29.6962 0.572565 -0.0727255 
186 1 17.4079 24.8785 -0.522579 -1.78549 
187 1 19.2575 32.1872 -1.16862 0.0559828 
188 1 23.445 22.0267 1.43436 -0.0908573 
189 1 21.7005 33.0915 0.999122 -0.0823244 
190 1 31.1368 26.6087 0.502408 -0.19494 
191 1 32.6931 23.0829 -0.114615 -0.869908 
192 1 32.196 21.9837 0.391059 2.49346 
193 1 41.191 25.8494 0.647073 1.37858 
194 1 46.7222 21.9948 1.14851 -0.099578 
195 1 44.1044 29.2676 -1.1055 0.0782359 
196 1 41.8284 31.6574 -1.64538 -0.711532 
197 1 51.022 25.7746 2.04282 0 
198 1 51.2058 30.3932 -0.630219 -1.61337 
199 1 53.8502 31.9433 0.343394 -0.102848 
200 1 55.7725 23.7994 -1.28242 -0.684821 
201 1 59.0904 25.7549 -0.868147 0.274816 
202 1 60.33 31.056 -0.505861 4.78 
203 1 7.21893 35.0854 0.995406 0.773523 
204 1 13.9576 32.0654 0.896612 -0.241469 
205 1 17.3336 26.7081 0.897462 -0.0121593 
206 1 13.7984 36.1887 -1.50498 -0.664263 
207 1 19.5854 28.6976 0.555055 -2.53101 
208 1 20.4473 29.355 0.0451472 2.70182 
209 1 24.3472 28.2315 -0.320262 -0.0369365 
210 1 29.393 27.4755 -0.46277 0.19494 
211 1 30.0603 30.6991 -0.400055 -0.106402 
212 1 34.6014 26.0036 -2.47059 0 
213 1 35.9614 31.0068 -0.329564 0.0464354 
214 1 39.8137 29.3929 0.401962 -0.485415 
215 1 51.6805 32.059 1.59321 -0.524243 
216 1 41.0693 32.5156 -1.03312 0.756492 
217 1 50.677 36.2427 -1.7092 -1.4845 
218 1 46.3042 28.7796 -2.20273 -0.0782359 
219 1 57.4289 29.3434 -1.99167 1.65181 
220 1 57.3503 33.1114 -1.27051 -0.399895 
221 1 58.5085 30.0987 -1.18112 -1.46803 
222 1 5.92453 36.1015 1.27637 -1.48345 
223 1 7.06815 41.2303 0.502672 0.00143724 
224 1 12.2331 36.6544 0.495254 0.650743 
225 1 14.6668 41.0451 0.856764 0 
226 1 15.4387 34.001 -0.148063 -0.0282758 
227 1 19.7115 34.0558 0.299702 0.0263416 
228 1 25.4462 30.503 0.614186 0.0390538 
229 1 22.1845 35.8641 -0.368506 0.027286 
230 1 29.4316 36.2719 0.0657752 0 
231 1 27.1669 34.0304 -0.90229 7.78432 
232 1 34.109 36.7155 -0.0948098 0 
233 1 37.3546 33.7352 -0.631214 0 
234 1 44.9486 39.9447 0.0939291 2.43695 
235 1 42.9429 33.9638 -1.06462 -0.446612 
236 1 49.9505 35.3478 2.13391 0.753682 
237 1 49.3957 37.1834 -0.848153 0.730821 
238 1 50.2184 31.2252 -1.379 2.24046 
239 1 59.4675 31.6764 3.01186 -3.97671 
240 1 1.43907 37.736 1.5453 0.203873 
241 1 60.1085 32.7883 -1.01808 -1.09754 
242 1 3.69767 31.9843 0.355459 -0.0213247 
243 1 8.03608 36.1308 1.17454 -1.43118 
244 1 7.25697 38.4878 0.369077 0.0128542 
245 1 12.2901 43.0206 0.432504 -0.313383 
246 1 11.3802 38.999 -1.44793 0.01352 
247 1 22.6571 37.9297 0.0864548 -50.8027 
248 1 15.0684 43.967 -2.42869 -0.657163 
249 1 21.9536 45.0703 -0.299373 0 
250 1 25.5443 42.8209 -0.633463 0.256059 
251 1 23.4675 38.4247 -2.20553 50.7754 
252 1 36.1404 38.8839 1.63862 -0.434401 
253 1 34.1741 39.3715 1.58848 0.502544 
254 1 45.9883 40.6765 2.99466 -1.58327 
255 1 43.151 35.0272 -0.272387 1.86379 
256 1 44.6227 34.8753 0.291141 -0.602629 
257 1 54.9193 37.7669 0.154509 0.0365778 
258 1 54.8781 35.6531 0.696244 0.179047 
259 1 56.6574 34.0108 0.222312 0.38059 
260 1 57.2415 38.8984 0.759159 -1.81566 
261 1 4.6696 35.7421 -0.9512 2.12826 
262 1 3.89197 39.623 0.795819 -1.48228 
263 1 10.4059 42.5366 -0.61047 1.87009 
264 1 7.40744 44.919 -0.891721 -0.864868 
265 1 11.261 43.4683 0.126416 4.61353 
266 1 17.0982 38.2826 -0.412741 0 
267 1 20.1969 38.508 1.15586 0 
268 1 26.6184 45.8886 -1.50839 -1.07258 
269 1 27.4143 38.12 -0.941781 0 
270 1 26.9136 34.9848 -0.594281 -7.78432 
271 1 34.9481 40.1976 -0.597511 -0.10052 
272 1 30.0883 39.8967 -2.7056 1.01756 
273 1 30.6887 38.7373 -1.28995 -1.01756 
274 1 46.4779 39.2344 0.147096 -0.853677 
275 1 46.1283 34.4408 0.311639 -0.859509 
276 1 42.6095 41.6591 -1.12931 0 
277 1 57.7269 44.6511 1.9546 1.52664 
278 1 56.1492 45.4315 1.38773 0.383395 
279 1 56.9039 36.076 0.769248 -0.157322 
280 1 59.8252 39.8973 -0.590678 0 
281 1 61.2356 49.317 0.0228256 0 
282 1 7.15752 43.7191 0.145891 0.446388 
283 1 5.73499 45.602 0.88012 0.512494 
284 1 0.97024 46.7867 -2.06372 0.0721519 
285 1 13.1218 46.8181 0.388434 -0.0640102 
286 1 10.7274 44.354 0.289707 -6.17024 
287 1 17.8616 46.3977 -0.532327 -3.51685 
288 1 25.97 44.8979 1.09362 1.80353 
289 1 27.1105 43.8577 -0.223227 -0.92257 
290 1 33.5053 42.1006 -1.65417 0.272479 
291 1 32.2069 49.0553 -0.286194 -0.639211 
292 1 29.4353 43.8073 2.26848 0.377775 
293 1 39.7291 46.1536 1.62144 0.0474904 
294 1 38.8391 42.3122 -0.588298 0 
295 1 40.3644 47.2098 -0.494163 -1.33334 
296 1 52.2542 40.6017 0.549597 -0.216965 
297 1 53.5635 45.8137 0.686536 0.050261 
298 1 48.1473 45.34 -1.42005 1.63029 
299 1 55.3133 48.7806 0.11083 0.410252 
300 1 61.3668 45.2633 -1.01583 2.10099 
301 1 62.5565 45.2311 1.50229 -2.04619 
302 1 3.12253 38.6745 -0.893652 1.27841 
303 1 5.58114 47.0549 -0.0172339 0.89323 
304 1 7.15182 46.7191 -1.07644 -0.988682 
305 1 13.0598 48.5052 0.89104 0.213299 
306 1 14.6941 45.205 -0.515428 0.601121 
307 1 17.8042 48.2162 -0.340583 0.0108498 
308 1 21.4303 53.1851 2.41633 -0.493795 
309 1 18.4627 45.5221 -1.91005 3.506 
310 1 36.6408 46.5724 1.94164 0.614093 
311 1 30.1633 45.1794 0.785881 -0.442214 
312 1 34.9285 43.2769 1.34797 -0.240101 
313 1 43.0229 50.2224 0.748175 0 
314 1 36.0999 52.709 -0.689083 0.0613576 
315 1 49.2679 46.0934 0.838189 -1.63029 
316 1 50.8491 39.3711 0.571282 0.216965 
317 1 57.3215 51.1264 0.234502 2.16682 
318 1 51.9246 48.7412 0.254395 0.0826393 
319 1 56.2046 39.673 -1.70627 1.77666 
320 1 59.9854 51.7233 -1.06392 0.0516237 
321 1 63.0686 52.809 -0.0279537 -1.50646 
322 1 62.386 51.7709 -1.81525 1.26497 
323 1 10.9576 47.0908 0.679795 0.075184 
324 1 9.5689 49.127 -1.4309 0.0242629 
325 1 8.88664 56.8868 -1.75759 -0.15362 
326 1 14.7286 50.5979 0.727165 0.106633 
327 1 14.7877 49.4046 -1.31464 -0.299326 
328 1 21.1339 54.4462 -0.210665 0.453931 
329 1 25.9492 49.6497 -0.483217 0 
330 1 20.3498 49.6214 -1.85516 0.0407762 
331 1 33.7072 54.391 -1.00124 0.188074 
332 1 38.8552 53.7753 0.830985 0.121824 
333 1 40.7186 53.1478 1.682 -0.163997 
334 1 38.293 51.9442 -2.07136 0.0561344 
335 1 38.3054 46.5712 -1.60368 0.67176 
336 1 40.7339 51.9301 -0.0100807 -0.0753194 
337 1 56.5237 50.3904 1.602 -1.4665 
338 1 53.7537 47.544 -1.54917 0.0141802 
339 1 58.9416 44.1126 0.395684 -1.91004 
340 1 62.4302 54.3334 1.2454 0.333536 
341 1 0.905486 47.8786 0.602066 -0.126949 
342 1 5.69708 54.6258 1.43091 0.311896 
343 1 9.6471 54.6056 0.453177 -1.4746 
344 1 4.95426 50.9182 -1.21169 0 
345 1 13.4504 56.3912 -0.308559 0.110827 
346 1 10.3732 52.2671 -1.23501 -0.0766888 
347 1 22.3129 51.022 0.760815 0.0261204 
348 1 20.7624 56.2519 0.238002 0.158686 
349 1 22.2738 57.7034 -1.34934 0.10413 
350 1 30.9602 58.3766 -0.981859 -0.161521 
351 1 37.2332 57.169 0.483942 1.03689 
352 1 38.6692 56.9601 -0.0730411 -1.37795 
353 1 40.1766 59.7454 -1.7054 -1.52545 
354 1 38.6619 59.1122 0.778594 0.948779 
355 1 47.7677 55.987 -0.0355052 0 
356 1 51.289 55.7564 0.488575 -0.0105323 
357 1 47.3177 52.5673 -1.10584 0 
358 1 50.9134 58.0479 -0.585678 -0.0336831 
359 1 56.9762 49.2704 2.09322 -1.25765 
360 1 1.41702 54.3895 1.13185 -0.143667 
361 1 5.9963 53.2254 1.15808 -0.226424 
362 1 8.22518 53.1096 2.13137 0.0868372 
363 1 4.89607 57.188 2.08254 0 
364 1 8.39829 55.2814 0.504383 1.53259 
365 1 13.3082 59.9823 -0.289208 0.0221166 
366 1 19.8312 58.954 1.27513 0 
367 1 18.89 51.7053 -0.646137 0 
368 1 25.0385 59.1887 -0.317065 0.771268 
369 1 30.7837 48.2806 0.846866 0.639211 
370 1 28.7631 56.0345 0.687152 0 
371 1 31.5379 52.4495 0.558151 0 
372 1 35.3585 57.3467 -0.681237 0.00148244 
373 1 36.1441 55.4905 1.98213 -1.29783 
374 1 44.1016 55.8238 1.97354 0 
375 1 41.8103 60.4402 -0.149077 -0.371971 
376 1 46.839 59.0894 -0.132265 0 
377 1 56.6552 56.7056 1.29458 0 
378 1 51.6834 62.2827 0.417733 -0.229967 
379 1 54.2929 52.9019 -1.83871 0 
380 1 1.16506 59.0973 0.449106 2.38328 
381 1 62.1221 61.0926 0.622302 1.79816 
382 1 2.20724 57.8862 -1.34921 0.102327 
383 1 12.1264 54.973 1.81285 0.152336 
384 1 15.153 57.1586 1.9657 -0.189867 
385 1 17.237 55.6164 -0.114784 0 
386 1 23.4771 59.1096 1.8626 0.706555 
387 1 24.2994 51.929 0.942962 -0.0904691 
388 1 20.8316 61.4488 -1.15907 -0.394953 
389 1 24.0269 1.32542 0.446228 0.0537786 
390 1 29.9029 0.718646 2.98054 0.611915 
391 1 29.5559 59.1225 -1.42935 0.662285 
392 1 27.5195 60.2029 -2.75143 -1.57433 
393 1 32.5134 57.7651 0.814735 -0.561209 
394 1 39.764 1.34287 -0.659671 -0.116678 
395 1 38.9294 60.4566 -1.40848 0.91937 
396 1 41.8457 57.3464 -0.64194 0 
397 1 49.5287 59.8645 -0.240855 0.0204537 
398 1 56.7141 62.6301 0.844598 0.480749 
399 1 59.3863 58.1252 1.21546 0 
400 1 63.059 61.9172 -0.598239 -1.79816 
