ITEM: TIMESTEP
500
ITEM: NUMBER OF ATOMS
400
ITEM: BOX BOUNDS pp pp pp
0.0000000000000000e+00 6.3245553203367592e+01
0.0000000000000000e+00 6.3245553203367592e+01
-3.1622776601683800e-01 3.1622776601683800e-01
ITEM: ATOMS id type x y vx fx 
1 1 59.8629 0.394876 -1.56 0 
2 1 5.40701 0.515758 1.23739 -2.0038 
3 1 4.27881 60.9987 -0.820343 0 
4 1 11.0655 2.84483 0.678283 -0.00682859 
5 1 14.3417 60.8943 0.661905 -0.119555 
6 1 14.9155 1.5706 -0.695986 -0.0388313 
7 1 17.1984 61.8466 -1.58535 -0.00480076 
8 1 23.9446 62.7996 1.74452 1.15027 
9 1 26.6276 1.9748 0.482999 -0.070966 
10 1 27.506 61.5808 -0.0804658 -1.30844 
11 1 27.9344 59.579 -1.51051 -0.0324294 
12 1 31.536 0.0320485 -1.18387 6.49969 
13 1 35.275 59.44 -0.522156 -2.21328 
14 1 38.9044 1.29546 -1.03775 -0.548689 
15 1 41.3019 1.86838 -1.25283 -0.0418393 
16 1 48.734 0.397461 -0.308839 0.228114 
17 1 51.7195 62.9784 1.56134 0 
18 1 56.688 61.1144 0.776866 -0.0642272 
19 1 56.9949 3.16129 -0.469207 -0.033139 
20 1 61.4149 2.36694 1.05519 -9.9913 
21 1 62.4511 2.47918 -1.86603 9.9913 
22 1 4.23291 1.08144 1.43305 2.0038 
23 1 8.95201 4.68961 1.20933 0.306573 
24 1 10.7902 5.18689 1.27394 -1.0622 
25 1 12.969 0.817636 -1.35429 0.126635 
26 1 17.0261 0.918497 1.02889 -0.0830025 
27 1 20.5268 3.74315 2.24021 -0.123009 
28 1 19.9631 2.04921 -1.31429 0.123009 
29 1 25.7951 3.81121 -0.268033 -0.0890337 
30 1 31.3152 0.996764 1.02611 -6.49969 
31 1 33.331 4.94282 1.58274 -0.923574 
32 1 37.5844 4.62539 0.946016 0.456395 
33 1 37.5304 2.15321 0.208606 0.619915 
34 1 39.3215 4.75025 -0.743657 -0.457313 
35 1 46.0025 4.30712 -0.208717 -0.121086 
36 1 47.6239 5.35194 0.728689 -0.193885 
37 1 49.798 1.83618 0.696631 0.877462 
38 1 52.7597 2.15929 -0.416202 -0.141312 
39 1 55.2812 6.77582 -0.594107 0.169531 
40 1 58.6607 3.59262 0.290439 -0.703194 
41 1 2.08746 3.56589 0.93715 0.00761822 
42 1 2.1475 5.48078 -0.528296 -0.00761822 
43 1 10.3311 6.38662 0.67379 0.64495 
44 1 7.30927 9.91245 -0.905819 0 
45 1 16.9533 8.45156 1.60312 0 
46 1 13.0968 8.03359 -0.967256 0 
47 1 19.5852 7.09069 0.907562 0.14804 
48 1 21.5273 6.56741 -0.164155 -0.168729 
49 1 25.5974 5.28754 -0.718858 0.138106 
50 1 28.6678 5.16191 -1.77237 0.0812257 
51 1 34.1192 9.32115 -0.198237 0.0365101 
52 1 32.4135 6.08977 -0.118037 -0.513981 
53 1 42.082 6.48507 1.5756 0.0352925 
54 1 40.2532 8.66091 1.20801 0.231762 
55 1 44.8161 3.03611 0.524555 0.316294 
56 1 50.8144 2.83082 1.16471 -0.964263 
57 1 47.7076 7.84685 -1.46845 -0.832633 
58 1 53.0867 6.47392 -0.223305 0.0893044 
59 1 56.5686 4.47521 -0.874643 2.51517 
60 1 57.7266 5.19349 0.733939 0.187635 
61 1 1.71437 8.05303 -0.524927 1.84416 
62 1 4.47334 12.014 -1.71521 0.286259 
63 1 4.94345 6.91341 -0.559115 -0.0711231 
64 1 5.95829 12.4224 0.515596 -0.842395 
65 1 13.1273 11.7158 -0.825477 -1.01507 
66 1 18.7613 11.7156 0.795918 0.0403612 
67 1 19.4048 9.02322 -0.0774802 0.0206894 
68 1 23.0957 10.089 0.442564 0.975413 
69 1 24.9796 7.45551 -0.744199 0.0218936 
70 1 29.4356 6.96659 1.52102 -0.0215454 
71 1 31.3306 5.68421 0.409215 1.37787 
72 1 35.6052 11.1559 0.895253 -0.0365101 
73 1 36.4065 6.99294 -0.0520878 0 
74 1 41.867 8.60091 0.352619 -0.730768 
75 1 44.2688 7.47128 -0.518886 0.105681 
76 1 46.1666 8.1938 1.26943 0.638914 
77 1 49.199 10.4704 -1.23549 0.127765 
78 1 50.965 9.41182 -0.204313 -0.127765 
79 1 56.7313 5.65479 -1.79337 -2.2253 
80 1 0.0365929 12.1411 1.27955 0 
81 1 59.5203 16.2847 -1.38233 0.0892473 
82 1 3.08118 8.14566 1.31921 -1.77304 
83 1 7.46095 13.8086 0.817328 0.158553 
84 1 9.6872 16.726 -0.027669 -0.0371737 
85 1 9.85114 8.07824 -1.02249 0.11751 
86 1 12.1871 12.7828 0.235924 2.18313 
87 1 19.7814 13.6908 0.647517 -0.0403612 
88 1 23.7858 14.7039 0.717136 0 
89 1 25.8305 10.8593 -0.364962 -1.48598 
90 1 24.3973 10.8478 -1.16331 0.510568 
91 1 27.0862 13.4302 -1.97065 0 
92 1 38.4736 15.3138 1.48026 0.0721914 
93 1 39.1426 9.83342 -1.02874 0.511068 
94 1 42.8951 12.276 -0.0399319 0 
95 1 45.457 10.2019 0.0270876 0.0393618 
96 1 48.6534 14.4541 -0.230118 -0.527279 
97 1 47.1054 13.8033 -1.22873 0.535236 
98 1 56.2749 13.9773 1.27863 0.759457 
99 1 53.6556 15.143 -1.37524 16.2405 
100 1 57.0639 12.7604 -1.26371 -0.759457 
101 1 63.1785 16.5155 -0.179856 -0.00159233 
102 1 2.83666 12.1302 -0.907728 0.67107 
103 1 4.23671 14.7626 -0.95263 0 
104 1 7.76017 15.2397 0.680777 -0.234604 
105 1 13.2191 13.7498 -0.49501 -1.02471 
106 1 11.6506 17.3825 -1.70219 -0.136095 
107 1 15.1111 14.531 -1.888 -0.143346 
108 1 20.8816 19.7592 0.0708005 -8.42097 
109 1 25.3298 17.6117 0.118665 0.0956399 
110 1 26.8558 19.05 -0.285504 0.0663748 
111 1 29.9917 12.4538 -0.496393 0 
112 1 35.8477 17.1606 -1.0857 0.646711 
113 1 40.4278 16.8432 1.18291 -0.408591 
114 1 42.9583 15.895 0.868755 0.187657 
115 1 43.7125 19.2768 -0.345766 0.0798576 
116 1 43.0613 17.2337 -1.55529 0.801292 
117 1 52.6377 15.2061 0.945639 -16.2405 
118 1 57.0318 17.1203 1.29544 0.0710674 
119 1 59.1082 18.3296 -1.35792 0.257614 
120 1 63.1709 14.7232 1.46453 0.00159233 
121 1 60.5747 17.9263 1.08877 -1.14667 
122 1 63.2191 22.7296 -1.18823 0.214892 
123 1 6.36727 19.3758 -1.70876 0.0448241 
124 1 7.8288 17.6053 -0.776913 0.0895606 
125 1 13.4723 20.3287 0.234026 0.162145 
126 1 16.2513 18.4106 0.891217 0.19484 
127 1 17.1675 19.9499 -1.71368 -0.145586 
128 1 21.7452 20.6764 1.82072 -1.76642 
129 1 25.6668 22.4079 -1.54635 0.756435 
130 1 28.5098 17.9603 -0.442676 -0.162015 
131 1 32.5793 18.7196 0.382604 0 
132 1 37.0192 18.2126 0.804893 -0.489181 
133 1 38.6519 17.0844 1.33032 0.178869 
134 1 41.6573 20.1274 0.151921 0.0809565 
135 1 46.2183 22.0963 0.565695 0 
136 1 44.5314 17.7135 -1.08221 -1.14976 
137 1 48.8888 16.7097 -0.132959 -0.00795743 
138 1 54.7425 18.3278 0.463823 0.209417 
139 1 59.1965 20.8118 0.83971 -0.096972 
140 1 57.8519 19.2462 -1.28251 0.742389 
141 1 3.21905 22.5207 1.23324 0.0113463 
142 1 1.2916 23.9823 -1.8879 -0.53227 
143 1 9.60964 23.0661 1.13741 0.0446417 
144 1 9.03266 20.561 1.29923 0 
145 1 13.0602 25.5156 0.73053 -0.205117 
146 1 18.2432 23.0573 -0.331382 0.0536331 
147 1 15.667 24.7561 -1.40334 0 
148 1 19.5663 20.2292 -1.0048 1.67643 
149 1 21.63 19.0436 -1.69706 8.4617 
150 1 28.0373 21.75 1.22988 -0.0264862 
151 1 29.2016 23.4767 -1.00641 -0.121478 
152 1 40.0371 23.1438 2.80022 -0.0853728 
153 1 36.4338 21.3425 -0.0349199 0 
154 1 39.6873 24.3047 -1.90133 0.547682 
155 1 42.7303 25.2527 0.261364 0.232767 
156 1 49.4688 21.0208 0.581823 0.0283245 
157 1 52.444 21.6985 0.662224 -0.289012 
158 1 54.8236 24.8887 0.42596 0 
159 1 55.7017 19.8334 -0.468277 -0.126091 
160 1 56.7322 22.2585 -1.34069 0 
161 1 1.95796 27.791 0.761249 0 
162 1 5.94793 27.5589 1.15005 0.040508 
163 1 5.59476 22.895 0.789682 0.0235831 
164 1 10.8854 28.7068 0.696631 0 
165 1 11.7327 24.2019 -1.40209 0.160475 
166 1 15.1265 21.4178 -0.302559 -0.162145 
167 1 21.0796 27.5598 0.70662 0 
168 1 20.0615 24.5088 -0.601476 -0.281009 
169 1 26.7482 23.4968 0.26319 -0.60847 
170 1 28.5658 27.0273 -0.775047 2.27338 
171 1 31.3379 25.3098 1.04523 -0.384786 
172 1 35.8574 26.2703 -0.176692 0 
173 1 38.9826 25.5653 0.580666 1.81602 
174 1 40.5585 27.0325 -2.57816 -0.0965701 
175 1 40.7988 24.4439 0.374017 -0.136479 
176 1 51.0948 22.8742 1.78076 0.284251 
177 1 52.0864 25.0278 0.588329 -0.0235636 
178 1 54.6497 28.5911 1.56873 -0.794673 
179 1 58.1133 25.2409 1.54117 -0.382945 
180 1 62.8597 24.6781 1.33563 0.0650944 
181 1 62.3814 26.1552 0.414391 0.29135 
182 1 4.58687 32.2096 -1.605 -19.1098 
183 1 7.68904 29.1776 1.326 -0.040508 
184 1 6.22449 24.7246 -1.47187 -0.0739965 
185 1 13.4998 29.1224 0.543917 0.160486 
186 1 18.2868 25.0928 0.982431 0.269975 
187 1 18.7737 31.9529 1.25056 1.47909 
188 1 22.5112 24.7925 0.0152675 -0.0425997 
189 1 22.4766 30.9628 -0.967303 0.038875 
190 1 29.6897 26.5635 0.259262 1.91043 
191 1 33.0981 26.3895 0.214678 -0.272619 
192 1 30.9508 26.3881 0.357607 5.58306 
193 1 40.5359 25.5175 0.26451 -1.83203 
194 1 44.4775 25.3253 1.14938 -0.446016 
195 1 45.9978 27.5212 2.40428 2.27283 
196 1 44.2441 31.479 -1.09646 -0.157705 
197 1 47.2892 27.4699 -1.49466 -2.27283 
198 1 53.5932 29.6641 -1.25303 0.794673 
199 1 54.131 32.2314 -1.66649 -0.126321 
200 1 58.1767 26.2998 -1.19894 0.382945 
201 1 60.9314 28.3683 -0.92565 0 
202 1 0.12754 30.933 -2.03561 0 
203 1 5.27314 32.9265 0.882652 19.1502 
204 1 11.9896 31.8878 1.00112 0 
205 1 15.532 28.9956 0.949505 -0.160486 
206 1 14.5558 35.5409 0.119842 10.9285 
207 1 19.2198 30.5442 -0.54992 0.983938 
208 1 20.0125 31.575 0.454029 -3.52841 
209 1 24.9465 29.8043 -0.296194 0 
210 1 30.7895 27.3404 -0.0916831 -9.11297 
211 1 30.7648 29.2291 -0.33665 0.00349704 
212 1 36.8573 28.7689 0.679562 -0.0168944 
213 1 36.6771 30.7527 -0.358765 0.0168944 
214 1 39.2209 32.2443 -0.767147 -0.116838 
215 1 48.3514 31.9128 1.55119 0 
216 1 44.1298 32.8386 -1.42856 0.106699 
217 1 52.0653 33.3354 0.984176 0.0771761 
218 1 50.6744 28.8094 -2.17503 0 
219 1 58.655 29.5281 0.0280481 0.0334485 
220 1 59.0006 31.4815 -0.452634 -0.0334485 
221 1 61.0376 32.941 -0.581887 1.35233 
222 1 4.88435 36.185 1.1378 0.0604286 
223 1 6.08789 38.5348 0.421004 0.161679 
224 1 11.4989 36.0248 0.283325 0 
225 1 12.8922 38.5089 0.666918 -0.0722196 
226 1 17.8252 32.9983 -1.95292 1.61387 
227 1 19.0342 34.0823 0.539508 -0.548488 
228 1 24.2086 32.6068 0.63508 -0.038875 
229 1 23.3291 35.486 -0.599484 0 
230 1 29.6783 37.3181 -1.70349 -0.539996 
231 1 29.2262 34.144 -1.00911 0 
232 1 32.8513 36.6479 1.39222 0 
233 1 38.1107 33.8626 0.700971 0.116838 
234 1 42.5568 36.3869 1.50747 0.249678 
235 1 43.8523 34.6432 -0.162665 0.16694 
236 1 46.5889 36.5029 1.77952 -0.903769 
237 1 51.1508 36.568 -0.869869 0.138248 
238 1 52.0903 31.8756 -1.02163 0.117736 
239 1 56.2284 31.3443 0.268505 -0.0685909 
240 1 61.5832 38.0369 1.00978 18.8475 
241 1 61.7599 33.9056 -1.74683 -1.35233 
242 1 2.9656 34.5527 0.368257 0 
243 1 6.65875 34.7762 0.541539 -0.10075 
244 1 7.81409 37.5404 -0.738533 -0.161679 
245 1 12.7402 40.0422 0.043131 0.0954203 
246 1 14.2174 36.4658 -1.25944 -10.954 
247 1 20.8101 36.8262 0.940394 0 
248 1 19.7733 41.6962 -2.3252 -0.245685 
249 1 22.5524 41.8539 -0.299373 0 
250 1 26.8784 41.1851 -0.545883 0.0342675 
251 1 28.7097 38.8919 -0.777626 -0.331159 
252 1 35.7248 37.321 -1.07429 7.89218 
253 1 35.2611 38.2259 -1.34314 -8.26718 
254 1 42.707 40.7845 1.17938 0.149306 
255 1 44.6288 36.4223 -0.603014 0.0431953 
256 1 45.9875 35.2143 -1.57804 0.308066 
257 1 53.9729 38.7203 1.00644 -0.0216622 
258 1 53.232 36.5326 0.8667 -0.116586 
259 1 56.5769 36.584 -0.227276 -0.377017 
260 1 58.4538 38.5571 -0.639613 -0.0782748 
261 1 2.70005 38.166 1.08002 0 
262 1 3.22432 41.7067 -0.799742 -8.23847 
263 1 8.57189 41.8755 0.950538 0.0287765 
264 1 9.53176 43.9684 -0.0336329 -0.0287765 
265 1 12.6574 42.37 -0.779188 0.00226685 
266 1 16.7364 39.8659 1.1533 0.0579982 
267 1 19.0744 40.1734 -0.434174 0.187687 
268 1 25.4526 44.8468 1.2559 -0.210485 
269 1 29.1599 41.7755 -0.120639 1.53013 
270 1 27.9046 37.5659 -0.769062 0.871154 
271 1 32.9582 40.2698 1.63362 0.675808 
272 1 32.7229 41.7232 -0.640001 0.049126 
273 1 33.7288 39.0886 -1.65702 -0.506319 
274 1 44.9062 39.8679 1.07525 -0.063149 
275 1 44.5105 37.739 0.589395 0.206157 
276 1 44.8816 40.9852 -0.966514 -0.105419 
277 1 54.1958 43.8754 1.91253 -0.175744 
278 1 54.0716 41.9234 0.829712 0.0134109 
279 1 56.3637 37.7551 -0.0861858 0.455292 
280 1 61.0548 38.8619 -0.0745761 -18.8475 
281 1 61.2747 47.6085 -0.102429 -0.0420163 
282 1 5.34668 44.6858 1.29099 -0.853513 
283 1 4.84202 43.0989 -1.27068 -0.833649 
284 1 4.98746 45.903 -2.18575 0.795542 
285 1 12.2635 46.4622 0.545639 -0.335308 
286 1 11.8456 45.0604 -1.84641 0.380797 
287 1 19.4828 48.1583 0.251272 0.475631 
288 1 24.1337 43.7943 2.14103 0.526956 
289 1 26.305 43.334 -0.0909935 -0.293866 
290 1 30.6907 41.9313 2.12945 -1.54335 
291 1 32.2871 46.8889 -0.0584687 0.19649 
292 1 29.7146 43.089 -2.16341 0.112739 
293 1 39.0949 45.1822 -0.755899 -41.1913 
294 1 40.6922 43.1495 -1.21855 -0.0596037 
295 1 40.0544 45.0374 -0.706206 40.9358 
296 1 51.3807 43.283 0.267647 -10.9739 
297 1 52.164 43.9471 0.850035 10.6941 
298 1 51.5862 45.545 -1.8125 0.176147 
299 1 55.8785 47.0026 0.947718 22.9477 
300 1 59.2407 46.3098 1.28286 12.6884 
301 1 0.367586 45.9391 -0.583431 0 
302 1 3.85268 42.5208 2.20895 9.2578 
303 1 5.92067 47.5549 -0.171083 -0.0934415 
304 1 8.06542 46.285 -0.292584 -0.0342657 
305 1 13.225 48.4112 0.0182787 1.57616 
306 1 15.786 47.3211 -0.550662 0.0609677 
307 1 18.5359 49.4239 -0.592255 1.65212 
308 1 20.0882 49.3355 -1.32343 -0.484746 
309 1 21.5872 46.27 -1.4844 0 
310 1 32.8525 45.3089 1.93155 -0.19649 
311 1 28.5356 46.7777 -1.47378 -2.3127 
312 1 37.3966 45.8468 0.578553 0.315056 
313 1 41.4602 48.8665 1.0196 -2.08233 
314 1 37.4964 48.8881 -0.698648 0 
315 1 47.028 46.9052 1.10244 0 
316 1 49.5218 42.9629 0.755057 0.266063 
317 1 55.2317 49.6299 1.47117 -2.19971 
318 1 52.235 50.8312 -2.41381 -10.5333 
319 1 56.8121 43.0349 -0.193023 0 
320 1 61.9267 50.141 1.00137 1.84581 
321 1 0.774962 52.3761 -0.917009 1.73513 
322 1 2.05425 52.8098 -1.47454 -13.0212 
323 1 9.54472 48.8078 0.46056 1.52023 
324 1 10.4454 49.7548 0.998738 -1.52023 
325 1 11.3013 55.2197 0.0481603 0.00401406 
326 1 14.12 49.3277 -1.12669 -1.62165 
327 1 16.6475 49.1976 -0.848178 0.19253 
328 1 21.4715 52.0481 -0.150432 -0.0506441 
329 1 27.3306 47.103 1.14083 2.3127 
330 1 24.0782 49.9504 -1.80326 0 
331 1 33.1191 53.1529 0.571427 -0.0487166 
332 1 37.2916 52.4636 1.0129 0.204311 
333 1 39.0093 53.3478 -0.263693 3.74701 
334 1 40.1641 52.9998 -0.8854 -1.88058 
335 1 40.2306 49.3063 -1.25884 2.08233 
336 1 43.1391 50.8303 -1.71803 0 
337 1 54.1224 50.1465 1.80926 1.70708 
338 1 55.192 47.7064 0.0610247 -22.8979 
339 1 58.3129 46.7504 -1.75388 -12.6913 
340 1 60.4447 53.7237 0.664504 0.887095 
341 1 62.9123 50.8346 -0.833513 -1.69498 
342 1 2.67823 53.6088 1.80805 13.8141 
343 1 8.1404 54.5605 0.972331 -0.347434 
344 1 7.37557 51.0922 -1.20769 0 
345 1 14.2874 56.0451 -0.31544 0.0659695 
346 1 12.8349 52.8689 -1.2308 0 
347 1 19.939 50.3677 1.8253 -1.84586 
348 1 20.3706 56.8269 0.235611 -0.0870209 
349 1 24.9699 56.1828 -1.32844 0.050792 
350 1 29.8683 56.6407 0.694535 0 
351 1 35.2585 56.4329 2.39992 0.97859 
352 1 37.4847 55.1959 1.33614 6.44649 
353 1 41.0127 55.8538 0.19619 -0.252641 
354 1 39.3639 56.9201 -1.19752 0.172808 
355 1 46.6654 54.1252 0.957423 0 
356 1 50.8138 52.7058 0.865149 -1.67696 
357 1 49.4271 52.5861 0.0199417 1.7129 
358 1 52.0757 55.9624 -0.591671 0.0755091 
359 1 53.2729 50.8904 0.924762 10.9851 
360 1 62.0012 53.7716 1.63349 -0.892448 
361 1 4.00579 53.445 1.16956 -2.52593 
362 1 3.71838 54.805 2.23906 0.0545518 
363 1 5.25628 55.8534 -1.38937 -0.243952 
364 1 7.75457 55.9743 0.18356 0.723211 
365 1 13.5788 59.1934 0.562806 0.119555 
366 1 17.3034 57.3958 1.31339 -0.60613 
367 1 18.5932 55.1564 -0.801564 -0.0515596 
368 1 25.2453 59.5552 0.398289 0.027967 
369 1 29.2849 52.8982 1.64982 0.808153 
370 1 27.359 55.911 0.709379 -0.050792 
371 1 30.7295 53.517 -0.529559 -0.759437 
372 1 35.1928 57.5794 0.652513 -0.000567789 
373 1 36.5599 55.705 -0.28039 -7.49705 
374 1 40.1151 54.0606 2.26107 -2.02425 
375 1 42.3469 58.8917 -0.779477 -0.0577138 
376 1 47.1035 58.1257 -0.132265 0 
377 1 54.065 56.9807 1.30586 -0.0755091 
378 1 53.5537 60.6518 -1.28253 0.432741 
379 1 57.9703 53.6645 -1.83902 0.0417939 
380 1 62.5075 59.3029 2.08189 3.64 
381 1 61.9387 60.2021 -0.532182 -1.41366 
382 1 2.36426 58.8394 -0.319206 0 
383 1 9.1963 56.9554 0.989378 -0.333028 
384 1 11.5373 57.6813 0.854726 -0.0467631 
385 1 16.6043 56.0981 1.64109 0.625434 
386 1 19.9307 58.5015 1.6626 0.121033 
387 1 22.3115 55.6716 1.02134 -0.067725 
388 1 22.8218 60.8209 0.297922 1.44372 
389 1 23.7964 61.7586 -1.66622 -2.46686 
390 1 26.0479 61.667 1.01333 1.18577 
391 1 32.4225 58.7407 -1.75613 -0.419155 
392 1 31.8867 59.7899 -0.853238 0.943044 
393 1 34.0957 59.1978 -2.20277 1.79529 
394 1 40.455 62.6451 -0.163893 0.0132602 
395 1 41.7796 60.7794 -1.03816 0.0159848 
396 1 45.1405 59.794 -2.05232 0 
397 1 50.0205 59.9172 -0.24618 0 
398 1 55.0359 61.5199 0.810891 0.0860288 
399 1 56.9392 59.8578 1.30261 -0.454543 
400 1 63.2372 60.6472 0.376009 -2.22635 
