ITEM: TIMESTEP
800
ITEM: NUMBER OF ATOMS
400
ITEM: BOX BOUNDS pp pp pp
0.0000000000000000e+00 6.3245553203367592e+01
0.0000000000000000e+00 6.3245553203367592e+01
-3.1622776601683800e-01 3.1622776601683800e-01
ITEM: ATOMS id type x y vx fx 
1 1 57.5918 1.84286 -1.40698 0.549895 
2 1 7.47582 63.1677 1.38778 -2.14802 
3 1 3.02966 59.6346 -0.880458 -0.138948 
4 1 12.0758 3.47841 0.624492 0.0637149 
5 1 16.1041 59.4447 1.10919 0 
6 1 13.8411 1.55072 -0.719842 0 
7 1 15.034 61.7744 -1.15245 -0.0276216 
8 1 25.9858 0.015859 1.20817 0.573974 
9 1 27.1617 1.05942 -1.07337 1.20703 
10 1 26.5573 60.3745 -0.780013 -0.158131 
11 1 26.2632 57.1108 -0.464644 0.00064152 
12 1 30.539 62.3027 -0.160154 -0.0332211 
13 1 34.542 56.0583 0.157732 -0.118428 
14 1 38.5342 0.122104 0.199324 0.456125 
15 1 39.415 4.23972 -1.26887 -0.0727883 
16 1 48.3117 62.3505 -0.279352 0 
17 1 54.1427 0.807438 1.88475 -0.858973 
18 1 57.7618 61.7208 1.07281 -0.944285 
19 1 55.9132 2.41538 -0.983633 0.370609 
20 1 58.9158 2.61768 -2.11691 -2.95079 
21 1 0.356895 3.18154 0.85853 0.35824 
22 1 6.16976 0.0773522 1.28265 2.14802 
23 1 11.0404 5.93172 1.51377 0.548501 
24 1 12.1097 4.73984 0.550039 -0.587125 
25 1 10.98 62.8576 -1.3221 0 
26 1 18.5947 62.4014 1.07139 -0.0810961 
27 1 23.8326 4.15752 1.71897 0.749826 
28 1 17.9631 0.961441 -1.36287 0.0810961 
29 1 25.2834 3.48109 -1.18068 -0.296395 
30 1 32.5468 1.79197 0.810048 0 
31 1 35.5974 4.42057 1.1558 -32.4593 
32 1 37.5014 5.39295 -0.267253 -1.38439 
33 1 36.8158 1.9475 -0.661042 0 
34 1 39.4959 7.48364 0.497645 0.123851 
35 1 45.8032 4.32961 0.930258 -1.51844 
36 1 48.5794 6.2648 0.584433 0.0528554 
37 1 51.4342 2.65323 1.41297 0.29746 
38 1 53.0468 1.81193 0.200109 0.592946 
39 1 54.2802 9.05194 -0.881741 0.145063 
40 1 60.0226 4.44206 1.08566 -0.0604846 
41 1 3.46957 2.32989 0.912599 0.0202279 
42 1 1.36844 4.51509 -0.5631 -0.358538 
43 1 10.7704 9.49522 -1.72034 -34.4395 
44 1 6.03899 12.0054 -0.714263 0.0447973 
45 1 19.6968 10.5009 1.87393 -0.0868108 
46 1 12.2808 8.00917 0.268538 -0.151913 
47 1 21.1488 5.97955 1.01002 -0.0211305 
48 1 20.8759 8.00245 -2.09121 2.05976 
49 1 23.8524 5.40453 -0.510961 -0.016658 
50 1 26.9801 3.088 -0.343071 -0.43216 
51 1 33.8248 9.5733 -0.196217 0 
52 1 31.5598 6.24076 -0.378282 0.612035 
53 1 43.2381 7.17201 0.868198 2.09044 
54 1 41.5368 6.96536 0.908398 0.579236 
55 1 45.7296 1.4993 0.627859 0 
56 1 50.945 0.210007 -0.436061 0.986959 
57 1 49.1123 8.16917 1.3938 0.223704 
58 1 52.8456 6.5915 -0.0966989 0.126438 
59 1 55.2384 3.32348 -1.11486 0.322362 
60 1 57.6642 2.98205 0.53408 1.72914 
61 1 1.35913 6.79809 -0.188035 0.000298605 
62 1 2.8783 12.3817 1.21713 -0.80278 
63 1 4.76282 4.46843 0.277539 -0.0362623 
64 1 6.99012 14.7908 0.793722 0.0519032 
65 1 11.5908 10.0146 0.126832 34.5664 
66 1 19.0434 14.1264 -0.219126 0 
67 1 18.9833 8.71168 -0.282092 0.245154 
68 1 22.0223 8.49958 0.742735 -1.99946 
69 1 23.6853 7.5157 -1.06 -0.18782 
70 1 31.9695 7.57539 1.83054 -0.432791 
71 1 32.5539 5.71447 0.498483 -0.179244 
72 1 36.9451 14.0739 0.893233 0 
73 1 36.4836 4.83458 0.311824 33.9165 
74 1 42.9417 8.23019 0.351697 -0.57208 
75 1 44.5066 3.7893 -0.438381 1.51844 
76 1 44.4301 6.69358 -1.88322 -2.22145 
77 1 46.9816 11.2173 -2.05917 -0.167757 
78 1 50.6285 9.18972 -0.25821 -0.27656 
79 1 54.7609 7.4107 -1.12431 -0.271501 
80 1 0.195657 11.2044 -2.2163 0.0922281 
81 1 60.1512 18.463 1.55962 0.161573 
82 1 3.97215 6.75435 0.149334 0.0160343 
83 1 8.23023 10.9869 0.28225 -0.0447973 
84 1 7.91346 19.1434 -1.79694 0 
85 1 8.58273 4.95019 -0.552311 0 
86 1 13.1661 12.4826 0.72045 -0.12521 
87 1 21.6644 14.1225 1.66256 0 
88 1 24.8709 17.2181 0.756963 0.143346 
89 1 24.4321 10.5369 -0.977192 1.89434 
90 1 25.4131 9.77789 0.934012 -1.89434 
91 1 24.1303 13.6269 -1.97065 0 
92 1 40.3403 14.2751 1.19014 0 
93 1 37.6679 10.9048 -0.980353 0 
94 1 42.8476 13.783 0.0109849 0.150265 
95 1 45.511 10.051 0.0603277 0.218648 
96 1 48.415 12.9565 0.3609 -0.0508913 
97 1 45.5089 14.8476 -1.28569 -2.16374 
98 1 58.2967 14.2762 1.33503 0 
99 1 54.8784 16.0672 0.445613 -4.44992 
100 1 55.0646 12.2123 -1.32011 0 
101 1 62.8423 16.649 -0.45848 -1.11402 
102 1 2.40143 11.2938 -0.242338 0.739347 
103 1 3.06206 14.2368 1.24196 -1.90805 
104 1 8.58121 16.3596 0.196757 -0.727888 
105 1 11.5641 16.3684 -1.40657 -0.046833 
106 1 10.6936 18.3212 -0.0637596 0.046833 
107 1 12.8593 14.0955 -1.25924 0.12521 
108 1 19.9698 19.5582 -0.674025 -1.23569 
109 1 25.5836 18.8759 0.179442 -0.10183 
110 1 26.3982 20.8687 -0.34176 -0.0415162 
111 1 29.2471 10.7112 -0.496393 0 
112 1 34.3199 15.9178 -1.01337 0 
113 1 41.6006 17.48 -0.735907 -0.0673286 
114 1 44.2336 15.1257 0.863171 1.2791 
115 1 42.9753 21.0899 -0.824442 -0.653944 
116 1 42.0557 18.6631 1.52064 -1.08613 
117 1 50.7819 14.9289 -1.24482 0 
118 1 56.3585 18.6494 -1.52583 14.4773 
119 1 57.1674 20.6204 -1.52358 -0.927028 
120 1 1.86236 14.8106 -0.733458 1.87925 
121 1 62.035 17.7487 1.11314 0.95245 
122 1 62.1605 22.7744 -0.623632 -0.4106 
123 1 3.81537 19.0807 -1.7007 0 
124 1 6.95298 16.5628 -0.201709 0.675985 
125 1 13.8115 17.8359 -0.0118851 0.5002 
126 1 17.4958 18.3276 0.658113 -0.086052 
127 1 15.4029 18.4515 -0.637981 -0.472627 
128 1 23.1142 21.6539 0.356802 2.4666 
129 1 24.9738 23.4362 1.49815 0.669282 
130 1 27.7969 17.2774 -0.479557 0 
131 1 33.1532 18.5671 0.382604 0 
132 1 38.1565 19.1315 0.754616 0 
133 1 40.4714 17.6605 -0.792978 1.2183 
134 1 41.888 21.7698 0.376308 2.32812 
135 1 46.9779 24.4118 0.431609 -0.153642 
136 1 42.7266 15.684 0.391381 0.669539 
137 1 48.7025 18.6384 -0.0542124 0.347118 
138 1 55.0827 17.0511 0.528829 4.55869 
139 1 60.4616 21.2549 1.20295 -0.102744 
140 1 55.6218 21.1361 -1.79122 -0.935806 
141 1 3.11245 22.2558 -1.66236 -0.631013 
142 1 1.48448 21.9668 0.510082 0.631013 
143 1 11.4079 24.127 1.20836 0 
144 1 10.9815 21.4174 1.29923 0 
145 1 14.2653 27.7923 0.810863 -0.485646 
146 1 16.7671 24.2791 -1.04331 2.15216 
147 1 13.4103 26.4885 -1.50782 0.505822 
148 1 18.6779 20.2206 -0.491169 1.19034 
149 1 19.7605 16.5695 -1.27689 0 
150 1 29.8858 20.2407 1.23059 0 
151 1 28.221 24.1957 0.211047 -0.36334 
152 1 43.6519 22.1178 2.41004 -1.67418 
153 1 36.3814 20.9148 -0.0349199 0 
154 1 38.8187 23.8318 -0.294785 0 
155 1 43.0503 25.1125 0.0052327 -0.564309 
156 1 50.3288 19.3873 0.503383 -0.347118 
157 1 53.7911 20.8974 1.21162 0.877051 
158 1 55.5141 26.5173 0.529846 0.0279234 
159 1 55.7222 19.424 0.418125 -14.3933 
160 1 54.7339 22.1449 -1.30969 0.0203272 
161 1 3.09456 29.3199 0.707483 -0.396833 
162 1 7.78351 28.938 1.37141 0.362939 
163 1 7.16632 22.2337 1.6637 -0.190412 
164 1 11.9355 30.5836 0.72162 0.086685 
165 1 9.58189 26.2118 -1.44069 0 
166 1 13.9788 19.8969 -0.88456 0.10383 
167 1 22.1271 29.1694 0.650102 -0.167429 
168 1 21.4098 23.7091 -0.942732 0.415287 
169 1 26.4189 24.1155 -1.16218 -0.358288 
170 1 28.0442 29.5099 -0.2312 0.0818084 
171 1 32.7749 22.4943 0.624171 -1.71604 
172 1 36.0345 29.1261 0.521257 0.260005 
173 1 38.9382 27.3223 0.0173339 -0.732717 
174 1 38.2383 28.5705 -0.580054 0.717983 
175 1 41.3828 24.6844 0.438566 -0.0128228 
176 1 53.4539 23.0356 1.46751 0.663483 
177 1 52.9601 24.7479 0.60098 0.109245 
178 1 55.4807 29.4069 -0.39104 0 
179 1 60.3059 22.6847 1.1116 0.499696 
180 1 61.2177 24.6651 -1.44383 -0.0198973 
181 1 62.9056 27.7165 0.256022 0 
182 1 2.09768 30.6315 -1.58356 0.421551 
183 1 9.56755 29.1902 1.10464 -0.362939 
184 1 5.57389 23.3252 0.464156 0.190412 
185 1 14.384 29.6332 0.59182 -0.0201755 
186 1 17.9236 24.8006 -0.979597 -2.15216 
187 1 19.8668 32.3139 -1.38167 1.93532 
188 1 22.7348 22.6416 1.44598 -2.82955 
189 1 21.1685 32.5512 1.25987 -2.19582 
190 1 30.8551 26.4014 0.637351 -0.344917 
191 1 32.9249 23.6916 -0.39877 -1.84255 
192 1 31.7032 23.0421 1.00002 3.5586 
193 1 40.9213 25.7379 0.675361 0.577132 
194 1 46.1393 22.7891 1.16593 0.153642 
195 1 44.6629 28.8198 -1.12058 0 
196 1 42.5234 31.4366 -1.24347 -0.299868 
197 1 50.0006 26.1976 2.04282 0 
198 1 51.8089 30.1789 -1.48996 -1.36282 
199 1 53.6721 32.2273 0.359566 0 
200 1 56.3906 24.4073 -1.2261 -0.0279234 
201 1 59.543 26.4156 -0.923783 0.033546 
202 1 60.456 31.2626 -0.00241314 -1.87733 
203 1 6.80995 34.708 0.643061 0.491832 
204 1 13.4862 32.0404 0.976126 -0.086685 
205 1 16.8857 27.2846 0.893396 0 
206 1 14.5266 35.466 -1.49316 0.669075 
207 1 19.4316 29.2189 -0.0619003 -0.10812 
208 1 20.3318 29.8856 0.535448 0.312871 
209 1 24.502 28.6188 -0.299736 -0.0352148 
210 1 29.655 27.6355 -0.597121 0.317385 
211 1 30.2495 30.3516 -0.361047 -0.0542768 
212 1 35.8367 26.6894 -2.47064 0.00368641 
213 1 36.14 30.3161 -0.40176 -0.190476 
214 1 39.562 30.3179 0.5609 -0.0584809 
215 1 50.8058 32.3971 1.86886 -0.118051 
216 1 41.7212 32.8917 -1.47184 0.408308 
217 1 51.3456 35.324 -1.18118 -0.10565 
218 1 47.3998 28.7991 -2.18765 0 
219 1 58.1783 29.9349 -1.23035 1.54008 
220 1 57.9193 32.6514 -1.14906 0.119271 
221 1 59.3712 30.5858 -1.96337 -1.21398 
222 1 6.16766 36.2291 -1.34577 2.00722 
223 1 6.81682 40.567 0.502668 0 
224 1 12.0152 36.4345 0.419118 0.00826022 
225 1 14.2384 40.4666 0.857934 -0.0334524 
226 1 15.5048 34.2935 -0.0765164 -0.669075 
227 1 19.5692 33.8684 0.251702 0.268417 
228 1 25.1388 31.0332 0.617081 -0.0100297 
229 1 22.373 36.0128 -0.378592 -0.116396 
230 1 29.3987 36.6808 0.0673589 -0.0388293 
231 1 27.7089 33.9764 -1.03021 -0.101277 
232 1 34.1567 36.9122 -0.100062 0.0590482 
233 1 37.6702 33.5713 -0.631214 0 
234 1 44.5607 38.821 0.905415 0.509236 
235 1 43.4327 34.0984 -1.18579 1.4896 
236 1 49.0334 35.5571 1.68109 0.266777 
237 1 49.8558 37.11 -0.923348 -0.161127 
238 1 50.7045 31.0321 -0.811087 1.48087 
239 1 58.1061 31.1724 2.44663 1.59453 
240 1 0.674687 37.8021 1.52588 0 
241 1 60.5507 32.5684 -0.822319 -0.193621 
242 1 3.51911 32.6467 0.358217 -0.0247183 
243 1 7.27556 35.7877 2.03109 -2.7345 
244 1 7.07292 37.9364 0.375747 -0.0973201 
245 1 12.4111 42.0989 -0.377364 -1.01069 
246 1 12.1059 38.432 -1.45366 -0.00826022 
247 1 22.2776 37.4043 0.719502 0.116396 
248 1 16.2514 43.3876 -2.34919 0 
249 1 22.1033 44.2662 -0.299373 0 
250 1 25.8964 42.5554 -0.785433 0.36738 
251 1 24.9024 38.3913 -2.82849 0 
252 1 35.4637 38.6644 0.610134 -0.992524 
253 1 33.614 39.4942 0.611809 2.05772 
254 1 44.971 40.4978 1.66097 0.117878 
255 1 43.4979 35.5215 0.0882197 -3.45443 
256 1 44.4326 34.9858 -0.471275 3.32691 
257 1 54.8459 37.5714 0.144402 -0.0667411 
258 1 54.5557 36.1729 0.575028 0.483785 
259 1 56.6281 34.6358 0.0089189 0.0203082 
260 1 57.4263 38.9274 -0.742846 -0.251989 
261 1 4.34793 36.3928 1.16006 0.332773 
262 1 3.43348 40.4905 0.905171 0.348385 
263 1 10.0226 42.4563 1.05007 0.566589 
264 1 8.05404 45.1857 -1.31355 4.41239 
265 1 11.5281 43.203 -0.646764 0.443712 
266 1 17.3049 38.7095 -0.418461 0.0651324 
267 1 19.6187 38.89 1.16158 -0.0651324 
268 1 27.2081 45.285 -0.951115 -0.142544 
269 1 27.8852 39.1431 -0.941781 0 
270 1 27.1199 35.7215 -0.467948 0.140107 
271 1 34.8687 39.9056 1.42133 -1.24685 
272 1 31.3937 40.0282 -2.48734 0.0532629 
273 1 31.3812 38.6717 -1.51499 0.0693441 
274 1 46.2648 39.3065 0.67721 -0.710168 
275 1 45.8414 35.2895 0.871436 -1.47052 
276 1 43.1746 41.7323 -1.13723 0.0830537 
277 1 56.8145 44.497 2.00751 -2.03838 
278 1 55.5612 44.509 0.795214 2.35249 
279 1 56.494 36.6641 0.887764 -0.389111 
280 1 60.1205 39.647 -0.590678 0 
281 1 61.222 49.2358 0.0389259 -0.0930783 
282 1 6.83309 43.9623 0.730733 0.0753006 
283 1 5.34171 44.9953 0.711505 0.298727 
284 1 1.97396 46.5444 -1.98624 0 
285 1 12.9218 46.6966 0.407952 -0.0235938 
286 1 10.6043 45.249 0.20574 0.0553569 
287 1 18.2079 46.9009 -0.843766 0.263562 
288 1 25.65 44.8301 0.297476 0.90791 
289 1 27.1745 43.7012 -0.256939 1.38481 
290 1 33.4201 42.454 1.69377 0.143867 
291 1 32.2675 48.5114 -0.017445 -0.126575 
292 1 28.2863 44.1226 2.57894 -2.42439 
293 1 39.3567 45.6871 -0.0491792 1.46855 
294 1 39.1332 43.0077 -0.588298 0 
295 1 40.4033 46.4847 0.395057 -2.19578 
296 1 51.9445 41.2435 0.712883 -0.521928 
297 1 53.2261 45.3502 0.663749 0.0385772 
298 1 49.0004 45.1411 -1.80285 -0.29268 
299 1 55.4433 48.2893 -2.00446 -2.69788 
300 1 60.9525 45.5208 1.1286 0.35288 
301 1 62.7298 45.4093 -0.644303 -0.395361 
302 1 3.62167 39.304 -0.983586 -0.348385 
303 1 5.64012 47.2237 -0.159485 0.0540831 
304 1 7.64364 46.1352 -0.928583 -4.8405 
305 1 12.6298 48.7074 0.846667 -0.000304307 
306 1 14.9747 45.7404 -0.559505 -0.0701609 
307 1 17.9772 48.6272 -0.355867 0.0606903 
308 1 20.2015 52.2767 2.07296 27.496 
309 1 19.3348 45.6 -1.58333 -0.324252 
310 1 35.6895 46.2614 1.89673 0 
311 1 29.7348 45.6293 0.899961 -0.0931673 
312 1 35.1676 43.4777 -2.00163 -0.143867 
313 1 42.6488 50.048 0.748175 0 
314 1 36.4484 51.754 -0.698648 0 
315 1 48.7058 46.5538 1.22099 0.29268 
316 1 50.5983 40.2836 0.407996 0.521928 
317 1 57.0467 50.7903 1.08422 -2.16743 
318 1 51.801 49.5576 0.246235 0 
319 1 56.4918 40.4098 -0.199492 0.234792 
320 1 60.5219 51.0068 -1.08532 0.0930783 
321 1 62.9882 52.7334 0.185946 0.585904 
322 1 0.12123 51.6172 -1.96238 -0.61969 
323 1 10.6256 46.6878 0.651387 0.0487951 
324 1 10.2869 49.1654 -1.44143 0.052735 
325 1 9.74574 56.8794 -1.68669 -0.0652129 
326 1 14.4223 50.4338 0.475561 0.493256 
327 1 15.3754 49.1784 -1.02937 -0.522246 
328 1 21.2348 53.9284 -0.158352 -0.152915 
329 1 26.1908 48.3772 -0.483217 0 
330 1 21.29 49.5156 -1.92494 0.240528 
331 1 33.9732 54.7146 0.610128 0.593451 
332 1 38.4891 53.8182 0.519802 1.6455 
333 1 39.84 53.4439 1.96428 -1.70003 
334 1 39.3618 51.8491 -2.34424 2.09771 
335 1 38.8576 47.2036 -0.777365 0.727232 
336 1 40.6902 51.6337 0.301273 -2.04318 
337 1 55.9177 50.3934 0.704869 1.82092 
338 1 54.4706 47.8343 0.240188 -3.84803 
339 1 58.5719 44.9087 0.941936 -0.310209 
340 1 61.8472 54.2273 1.09446 0.253531 
341 1 0.630192 48.8634 0.530056 0 
342 1 5.0306 54.3322 1.41291 -4.92135 
343 1 9.23566 54.8045 0.7671 11.577 
344 1 5.56146 50.9485 -1.21571 -0.00344 
345 1 13.6773 56.1852 -0.684639 0.148617 
346 1 10.9887 52.4174 -1.2308 0 
347 1 21.9203 51.048 0.844506 -0.342102 
348 1 20.6584 56.5426 0.187433 0.046833 
349 1 22.9555 57.2952 -1.35663 -0.0761584 
350 1 31.0285 57.9747 1.26241 0.324323 
351 1 37.0311 57.2581 0.53077 -1.55648 
352 1 38.5902 56.4061 0.309732 -0.378305 
353 1 41.0323 58.9397 -2.02844 0.548411 
354 1 38.3175 58.3806 0.695345 -0.346166 
355 1 47.7855 54.9986 -0.035651 0.00959382 
356 1 51.0442 54.742 0.489787 0 
357 1 47.8707 53.0549 -1.1057 -0.00959382 
358 1 51.2041 57.5265 -0.580386 0 
359 1 55.7563 49.2447 2.48757 6.89242 
360 1 0.830298 54.3197 1.22131 -0.219746 
361 1 5.38663 53.3702 1.07071 5.39673 
362 1 7.15442 53.5585 2.18435 -0.364802 
363 1 3.82579 57.2921 2.04271 24.1179 
364 1 8.34685 55.3245 0.123009 -11.4016 
365 1 13.4559 59.882 -0.301979 0.0276216 
366 1 19.1937 58.5762 1.27513 0 
367 1 19.2411 52.523 -0.37961 -27.2415 
368 1 25.2696 59.077 -0.559706 0.276752 
369 1 30.4427 49.4889 0.578116 0.126575 
370 1 28.4185 56 0.696578 -0.0428746 
371 1 31.2588 52.6689 0.558151 0 
372 1 35.7604 57.4565 -1.08927 2.08725 
373 1 36.2383 55.1538 -1.11139 -0.259829 
374 1 43.1149 55.3958 1.97354 0 
375 1 41.7838 59.7453 0.343425 1.07847 
376 1 46.9051 58.8485 -0.132265 0 
377 1 56.0079 56.7745 1.29458 0 
378 1 51.7187 62.3057 -1.29454 -0.979124 
379 1 55.2122 53.0926 -1.83871 0 
380 1 1.08559 58.95 0.0276133 0.212288 
381 1 61.9745 60.8011 0.0467691 0.892223 
382 1 2.91178 57.6858 -1.29581 -24.1913 
383 1 11.2241 55.1737 1.82304 -0.217407 
384 1 14.0888 57.2377 2.36992 -0.148617 
385 1 17.2944 55.5629 -0.114784 0 
386 1 22.5691 59.3048 1.81272 -0.0965682 
387 1 23.8205 52.8694 0.964685 0 
388 1 21.3963 60.8721 -1.13292 0.125894 
389 1 23.8076 0.526157 0.427555 0.0819731 
390 1 28.4386 0.628919 3.02992 -1.87728 
391 1 30.358 58.9698 -1.85094 1.25786 
392 1 28.8152 60.5838 -2.54316 0.0157991 
393 1 32.4327 58.1665 -0.973228 -1.64115 
394 1 40.0663 0.888945 -0.52 -0.456125 
395 1 39.6888 60.4692 -1.57923 0.169573 
396 1 42.155 58.1898 -0.493913 -1.81794 
397 1 49.6512 59.8782 -0.24618 0 
398 1 56.3612 62.337 0.530787 0.944285 
399 1 58.7785 58.5416 1.21546 0 
400 1 63.1946 61.6942 -0.0227062 -0.892223 
