LAMMPS (22 Aug 2018)
##
dimension 3
boundary p p p
atom_style full
units metal
kspace_style pppm/cg 1.0e-4
kspace_modify pressure/scalar no
bond_style harmonic
angle_style harmonic

neighbor 2.0 bin
neigh_modify delay 0 every 1 check yes page 500000 one 50000

region box1 block -40.0 40.0 -40.0 40.0 -40.0 40.0
create_box 4 box1 bond/types 2 extra/bond/per/atom 2 angle/types 1 extra/angle/per/atom 1 extra/special/per/atom 10
Created orthogonal box = (-40 -40 -40) to (40 40 40)
  1 by 1 by 1 MPI processor grid

molecule cat_ion cation_mol.txt
Read molecule cat_ion:
  3 atoms with max type 4
  2 bonds with max type 2
  1 angles with max type 1
  0 dihedrals with max type 0
  0 impropers with max type 0

mass    1  86.81 #anion
mass    2  67.07 #ring
mass    3  15.04 #methyl
mass    4  29.07 #ethyl

create_atoms 1 random 40 1340 box1                     #at least 40
Created 40 atoms
  Time spent = 0.00141191 secs
create_atoms 0 random 40 2345 box1 mol cat_ion 1234    #at least 40
Created 120 atoms
  Time spent = 9.39369e-05 secs
#create_atoms 1 single  10.0 0.0 0.0
#create_atoms 0 single 0.0 0.0 0.0 mol cat_ion 1234
group anion type 1
40 atoms in group anion
group ring type 2
40 atoms in group ring
group methyl type 3
40 atoms in group methyl
group ethyl type 4
40 atoms in group ethyl

bond_coeff 1 207.729 2.689748837
bond_coeff 2 207.729 3.04931147
angle_coeff 1 207.729 144.1868904


## -- INTERATOMIC POTENTIALS -- #
pair_style lj/cut/coul/long 18.0
pair_modify mix geometric
#pair_style nm/cut/coul/long 18.0
################### properties to change
## values from easy begin

pair_coeff 1 1 0.03358 4.51
pair_coeff 2 2 0.026533 4.38
pair_coeff 3 3 0.0037311 3.41
pair_coeff 4 4 0.012852 4.38

#create_bonds single/bond 1 2 3
#create_bonds single/bond 2 2 4
#create_bonds single/angle 1 3 2 4

set type 1 charge -0.78
  40 settings made for charge
#set type 2 charge  0.408675
#set type 3 charge  0.317505
#set type 4 charge  0.273820

########################################

write_data solid.data pair ij
PPPM initialization ...
  using 12-bit tables for long-range coulomb (../kspace.cpp:321)
  G vector (1/distance) = 0.103821
  grid = 10 10 10
  stencil order = 5
  estimated absolute RMS force accuracy = 0.00106761
  estimated relative force accuracy = 7.41413e-05
  using double precision FFTs
  3d grid and FFT values/proc = 3375 1000
Neighbor list info ...
  update every 1 steps, delay 0 steps, check yes
  max neighbors/atom: 50000, page size: 500000
  master list distance cutoff = 20
  ghost atom cutoff = 20
  binsize = 10, bins = 8 8 8
  1 neighbor lists, perpetual/occasional/extra = 1 0 0
  (1) pair lj/cut/coul/long, perpetual
      attributes: half, newton on
      pair build: half/bin/newton
      stencil: half/bin/3d/newton
      bin: standard

thermo_style	custom step temp pe ke ebond press density

##################################
variable    T equal 400
variable    V equal vol
variable    dt equal 0.001  # default
variable    p equal 400     # correlation length
variable    s equal 5       # sample interval
variable    d equal $p*$s   # dump interval
variable    d equal 400*$s   
variable    d equal 400*5   

# convert from LAMMPS real units to SI

variable    kB equal 1.3806504e-23    # [J/K/** Boltzmann
variable    bar2Pa equal 100000.0
variable    A2m equal 1.0e-10
variable    ps2s equal 1.0e-12
variable    convert equal ${bar2Pa}*${bar2Pa}*${ps2s}*${A2m}*${A2m}*${A2m}
variable    convert equal 100000*${bar2Pa}*${ps2s}*${A2m}*${A2m}*${A2m}
variable    convert equal 100000*100000*${ps2s}*${A2m}*${A2m}*${A2m}
variable    convert equal 100000*100000*1e-12*${A2m}*${A2m}*${A2m}
variable    convert equal 100000*100000*1e-12*1e-10*${A2m}*${A2m}
variable    convert equal 100000*100000*1e-12*1e-10*1e-10*${A2m}
variable    convert equal 100000*100000*1e-12*1e-10*1e-10*1e-10
timestep    ${dt}
timestep    0.001
variable    tdamp equal ${dt}*10.
variable    tdamp equal 0.001*10.
variable    pdamp equal ${dt}*100.
variable    pdamp equal 0.001*100.
thermo      $d
thermo      2000

variable    ILdens equal density
variable    ILstep equal step
variable    ILtime equal time*1.0e-12 #from ps to s
variable    ILtemp equal temp
variable    ILpe equal pe
variable    ILke equal ke
variable    ILpr equal press

##################################
fix         333 all print 2000 "${ILstep} ${ILtime} ${ILdens} ${ILtemp} ${ILpr} ${ILpe} ${ILke}" file density.dat screen no
dump        1 all dcd $d minim.dcd
dump        1 all dcd 2000 minim.dcd
dump        2 all custom $d dump.atom id mass type x y z
dump        2 all custom 2000 dump.atom id mass type x y z

##################################
##################################
#  Minimize initial
##################################

velocity     all create $T 502844619  mom yes rot yes dist gaussian
velocity     all create 400 502844619  mom yes rot yes dist gaussian
minimize 1.e-4 1.0e-6 1000 10000
PPPM initialization ...
  using 12-bit tables for long-range coulomb (../kspace.cpp:321)
  G vector (1/distance) = 0.103821
  grid = 10 10 10
  stencil order = 5
  estimated absolute RMS force accuracy = 0.00106761
  estimated relative force accuracy = 7.41413e-05
  using double precision FFTs
  3d grid and FFT values/proc = 3375 1000
  PPPM/cg optimization cutoff: 1e-05
  Total charged atoms: 100.0%
  Min/max charged atoms/proc: 100.0% 100.0%
Per MPI rank memory allocation (min/avg/max) = 11.73 | 11.73 | 11.73 Mbytes
Step Temp PotEng KinEng E_bond Press Density 
       0          400    8400890.1    8.2209452   0.58297596 1.051608e+08  0.025685164 
     382          400   -53.273597    8.2209452 0.0029246214   -15.355637  0.025685164 
Loop time of 0.299465 on 1 procs for 382 steps with 160 atoms

83.2% CPU use with 1 MPI tasks x no OpenMP threads

Minimization stats:
  Stopping criterion = energy tolerance
  Energy initial, next-to-last, final = 
         8400890.10824     -53.2686211541     -53.2735974251
  Force two-norm initial, final = 1.48053e+08 2.47445
  Force max component initial, final = 6.53831e+07 1.10191
  Final line search alpha, max atom move = 0.115668 0.127455
  Iterations, force evaluations = 382 702

MPI task timing breakdown:
Section |  min time  |  avg time  |  max time  |%varavg| %total
---------------------------------------------------------------
Pair    | 0.022541   | 0.022541   | 0.022541   |   0.0 |  7.53
Bond    | 0.0044365  | 0.0044365  | 0.0044365  |   0.0 |  1.48
Kspace  | 0.266      | 0.266      | 0.266      |   0.0 | 88.83
Neigh   | 0.0014377  | 0.0014377  | 0.0014377  |   0.0 |  0.48
Comm    | 0.0017414  | 0.0017414  | 0.0017414  |   0.0 |  0.58
Output  | 0          | 0          | 0          |   0.0 |  0.00
Modify  | 0          | 0          | 0          |   0.0 |  0.00
Other   |            | 0.003304   |            |       |  1.10

Nlocal:    160 ave 160 max 160 min
Histogram: 1 0 0 0 0 0 0 0 0 0
Nghost:    350 ave 350 max 350 min
Histogram: 1 0 0 0 0 0 0 0 0 0
Neighs:    931 ave 931 max 931 min
Histogram: 1 0 0 0 0 0 0 0 0 0

Total # of neighbors = 931
Ave neighs/atom = 5.81875
Ave special neighs/atom = 1.5
Neighbor list builds = 16
Dangerous builds = 0

reset_timestep 0
fix 1 all npt temp $T $T ${tdamp} iso 1.0 1.0 ${pdamp}
fix 1 all npt temp 400 $T ${tdamp} iso 1.0 1.0 ${pdamp}
fix 1 all npt temp 400 400 ${tdamp} iso 1.0 1.0 ${pdamp}
fix 1 all npt temp 400 400 0.01 iso 1.0 1.0 ${pdamp}
fix 1 all npt temp 400 400 0.01 iso 1.0 1.0 0.1
run             200000
PPPM initialization ...
  using 12-bit tables for long-range coulomb (../kspace.cpp:321)
  G vector (1/distance) = 0.103821
  grid = 10 10 10
  stencil order = 5
  estimated absolute RMS force accuracy = 0.00106761
  estimated relative force accuracy = 7.41413e-05
  using double precision FFTs
  3d grid and FFT values/proc = 3375 1000
Per MPI rank memory allocation (min/avg/max) = 10.6 | 10.6 | 10.6 Mbytes
Step Temp PotEng KinEng E_bond Press Density 
       0          400   -53.273597    8.2209452 0.0029246214   -15.355637  0.025685164 
    2000    397.74887   -105.27381    8.1746792  0.054043656    2912.5343   0.54869605 
    4000    374.41683     -115.695    7.6951505   0.13691811    7040.0471   0.79822711 
    6000     350.1577   -119.91456    7.1965682  0.031669943    2560.1001   0.98065828 
    8000    396.02315   -121.23247    8.1392116   0.14965251   -13020.437    1.0734094 
   10000    440.21411   -121.79483    9.0474403   0.10389206   -10949.489    1.0610478 
   12000    393.61958   -123.07638    8.0898125  0.019191475     1784.677    1.0632484 
   14000    416.42992    -122.9428    8.5586188   0.10824548    9157.7827    1.1015335 
   16000    379.15144   -123.16548     7.792458  0.013558982   -1751.0965    1.1115318 
   18000    408.98453   -122.55584    8.4055985   0.13304959    -11628.94    1.0735574 
   20000    447.37771    -122.6015    9.1946692  0.019785481    1614.3259     1.133506 
   22000    341.25359   -122.12711    7.0135676  0.074443418    8856.4887    1.1433256 
   24000    413.71956   -121.62267    8.5029146  0.010405229    591.39117     1.086077 
   26000    442.97964    -120.5761    9.1042783   0.16693691   -13161.599    1.0454808 
   28000    393.06187    -122.1697    8.0783504  0.060200989   -7858.2068     1.122211 
   30000     385.9432   -121.18117    7.9320447  0.095727137    8514.2616    1.0640316 
   32000    383.96322   -122.22179    7.8913515   0.36877008     19380.99     1.118493 
   34000    419.30016   -122.49281     8.617609  0.011147785   -2488.5731    1.1026531 
   36000    367.37932   -122.57617    7.5505132    0.2246695   -16336.106    1.1100237 
   38000    381.03693   -122.80425    7.8312092  0.033980697   -5471.5247    1.0877923 
   40000    357.82312   -123.79945    7.3541107   0.10032776    9074.5173    1.1353444 
   42000     385.9074   -122.86838     7.931309  0.085296572    8435.1137    1.1081154 
   44000    388.36631   -121.89214    7.9818455  0.095188559   -10573.855    1.0777177 
   46000     391.0988   -121.96259    8.0380046  0.060797484    -8410.439    1.0724212 
   48000    431.53332   -123.13072    8.8690295  0.087925203     7098.997    1.0822819 
   50000     412.2936   -121.07785    8.4736078   0.20998639    13401.538    1.0707347 
   52000    427.08494   -122.27564    8.7776048  0.035789368   -5516.3749    1.1034307 
   54000    388.47549    -121.2957    7.9840892   0.10039076   -11511.249    1.0777609 
   56000    481.78777   -123.76565    9.9018772  0.015181055    1216.1386    1.1478359 
   58000    417.34837   -120.96184    8.5774952   0.21998391    13297.371    1.0493247 
   60000    396.89642   -122.64461    8.1571594  0.070045703    7096.2957    1.0997685 
   62000    393.23015   -123.22588    8.0818088   0.11925489   -11705.685     1.115796 
   64000    394.00638   -122.53711    8.0977622   0.06557347   -8042.9174    1.1073833 
   66000    394.79223   -122.63353    8.1139132  0.073357393    7433.6056    1.1078178 
   68000    402.81104   -123.90519    8.2787188  0.097852015    9132.3799    1.1209074 
   70000    440.05752   -121.63002    9.0442219   0.13800984   -12612.842    1.0710112 
   72000    417.65085   -121.85138     8.583712   0.20463923   -15007.411    1.0779115 
   74000    409.68111   -122.10612    8.4199148  0.054925925    5973.2057    1.1058244 
   76000    398.37942   -122.75509    8.1876384   0.13127465    11210.116    1.1168533 
   78000    387.68421    -122.7347    7.9678266  0.013993384   -67.527837    1.1127842 
   80000    376.43335   -122.06257    7.7365949  0.094056571   -10767.145    1.0811527 
   82000    394.20451   -122.70155    8.1018341  0.013249306   -2330.9877    1.0980289 
   84000    379.82847   -122.57786    7.8063725   0.13177515    10277.882    1.1253395 
   86000    360.74305   -122.55801    7.4141221  0.020080563    2031.6013    1.1431221 
   88000    415.22061   -123.07224    8.5337648  0.080819017   -10088.994    1.0836991 
   90000    413.33442   -121.21277    8.4949991   0.21230276   -15711.597    1.0749794 
   92000    375.56729   -121.99319    7.7187953  0.026710945    1878.7271    1.0962239 
   94000    392.59922   -121.27563    8.0688417   0.34826237    18290.318    1.0732749 
   96000    426.50987   -121.78725    8.7657857  0.057267515    5624.4824     1.066063 
   98000    395.00103   -122.84689    8.1182046   0.18757539   -15119.773    1.1037468 
  100000    389.59183   -120.64654    8.0070328   0.25856494    -16990.97     1.037105 
  102000     366.2889    -121.4131    7.5281024   0.17198036    11093.597    1.0496941 
  104000    337.29892   -122.10556    6.9322899   0.29857049    16292.897    1.0801745 
  106000    416.28229   -122.76904    8.5555847  0.036409594    3377.8711     1.116061 
  108000    412.75482   -122.47319    8.4830869   0.43024914   -22113.667    1.1080747 
  110000    379.39925    -121.1479    7.7975512   0.11798916   -11555.207    1.0760747 
  112000    416.53252    -120.3992    8.5607277  0.051871125    5187.2387    1.0363934 
  114000    392.41509   -123.18923    8.0650575   0.16195803    12013.651    1.1250476 
  116000     386.9128   -123.17406    7.9519723  0.037859789   -6675.7315    1.0918244 
  118000    367.54709   -123.50356    7.5539612   0.11183839   -11099.067    1.1364975 
  120000    398.46435   -122.22861     8.189384   0.04049808    4545.2438    1.1099673 
  122000    386.20277   -120.92702    7.9373796   0.21674571    12807.968    1.0596021 
  124000    426.80161    -123.9237    8.7717817  0.013360611   -2349.6283     1.118984 
  126000    416.17602   -121.59352    8.5534007  0.078624801   -8424.6952    1.0850699 
  128000    447.74567   -122.86955    9.2022315  0.033369984     3333.939    1.1159986 
  130000    386.03304   -122.72832    7.9338911    0.1607015    11837.067    1.1039532 
  132000    409.57496   -121.08168    8.4177333  0.022126548    -4424.634    1.0516659 
  134000    394.65321   -121.18029     8.111056  0.078917235   -9167.9356    1.0553127 
  136000    422.12175   -121.13121    8.6755995  0.021842229    1487.4964    1.0499308 
  138000    436.27518   -122.42777    8.9664858   0.22632279    14666.174    1.1181797 
  140000    405.34527   -122.28179    8.3308032  0.058994774    6162.0704     1.117151 
  142000    406.05476   -121.46847    8.3453849   0.23191401   -17250.943    1.0822854 
  144000    358.53982   -121.44165    7.3688406  0.078639268   -9406.2714    1.0778248 
  146000    455.68129   -123.87034    9.3653273  0.056401186    6581.0855    1.1374201 
  148000    424.76504   -122.41284    8.7299253   0.20205458     13399.68    1.1011834 
  150000    386.03003   -122.58201    7.9338293  0.060347709   -8505.3687    1.0701512 
  152000    432.62875   -122.09521    8.8915432   0.19557138   -14698.887    1.0822145 
  154000    355.45282   -123.33118    7.3053955  0.027628245    3004.7064    1.1343088 
  156000    389.73255   -122.23396    8.0099249    0.3338803    17526.973    1.0940035 
  158000    367.61387   -123.17399    7.5553337  0.020643309   -2683.1485    1.1363943 
  160000    433.34187   -121.97911    8.9061994   0.34219636   -18934.624    1.1074916 
  162000    423.13397   -121.57534    8.6964031  0.025680394   -4247.4298    1.0776451 
  164000      398.061    -121.8375    8.1810943   0.12391828    10901.015    1.1032934 
  166000    434.42752   -122.83214    8.9285121  0.031479578     3147.467    1.0824303 
  168000    432.94668   -123.42489    8.8980774   0.10400207   -10616.059    1.1288957 
  170000    380.64546    -122.6152    7.8231637  0.040002575   -6502.4109    1.0699916 
  172000    403.55222   -123.83937    8.2939516  0.044328542    5292.7128    1.1390192 
  174000      348.549   -122.58406    7.1635056  0.052624237    6579.1171    1.1332891 
  176000      357.941   -119.61731    7.3565335   0.17194588   -13695.683    1.0542744 
  178000    386.57529   -123.68322    7.9450356   0.11190985   -11609.089    1.1167806 
  180000    375.58058   -122.23441    7.7190685  0.062879091    7050.4425    1.1160901 
  182000    380.45411   -121.99408     7.819231   0.22963186     14074.96    1.0888538 
  184000    431.51397   -122.22381    8.8686318  0.017764292    870.84318    1.0878319 
  186000    386.45487   -121.63827    7.9425607   0.28458804   -17952.131    1.0821591 
  188000    362.79269   -122.75439    7.4562471  0.032521443   -5665.5277    1.0897263 
  190000    390.52861   -121.80915    8.0262858   0.17270695    13011.774    1.1186115 
  192000    420.68313   -123.34398    8.6460325   0.12320973    9415.3438    1.1005161 
  194000     394.1158   -123.39087     8.100011   0.06400464   -8469.7165    1.1007007 
  196000    396.00441   -123.49268    8.1388264   0.13211839   -12785.665    1.1123909 
  198000    364.99793   -122.85062    7.5015699   0.19244357    14212.882    1.1360215 
  200000    382.08182   -122.48899    7.8526844   0.12693807    10717.454     1.088934 
Loop time of 283.122 on 1 procs for 200000 steps with 160 atoms

Performance: 61.034 ns/day, 0.393 hours/ns, 706.410 timesteps/s
98.1% CPU use with 1 MPI tasks x no OpenMP threads

MPI task timing breakdown:
Section |  min time  |  avg time  |  max time  |%varavg| %total
---------------------------------------------------------------
Pair    | 160.2      | 160.2      | 160.2      |   0.0 | 56.58
Bond    | 1.4246     | 1.4246     | 1.4246     |   0.0 |  0.50
Kspace  | 64.463     | 64.463     | 64.463     |   0.0 | 22.77
Neigh   | 3.6696     | 3.6696     | 3.6696     |   0.0 |  1.30
Comm    | 3.398      | 3.398      | 3.398      |   0.0 |  1.20
Output  | 0.034992   | 0.034992   | 0.034992   |   0.0 |  0.01
Modify  | 49.069     | 49.069     | 49.069     |   0.0 | 17.33
Other   |            | 0.8592     |            |       |  0.30

Nlocal:    160 ave 160 max 160 min
Histogram: 1 0 0 0 0 0 0 0 0 0
Nghost:    3143 ave 3143 max 3143 min
Histogram: 1 0 0 0 0 0 0 0 0 0
Neighs:    35449 ave 35449 max 35449 min
Histogram: 1 0 0 0 0 0 0 0 0 0

Total # of neighbors = 35449
Ave neighs/atom = 221.556
Ave special neighs/atom = 1.5
Neighbor list builds = 3180
Dangerous builds = 0
unfix 1
unfix 333
fix 1 all nvt temp $T $T ${tdamp}
fix 1 all nvt temp 400 $T ${tdamp}
fix 1 all nvt temp 400 400 ${tdamp}
fix 1 all nvt temp 400 400 0.01

reset_timestep 0
variable     pxy equal pxy
variable     pxz equal pxz
variable     pyz equal pyz
fix          SS all ave/correlate $s $p $d              v_pxy v_pxz v_pyz type auto file S0St.dat ave running
fix          SS all ave/correlate 5 $p $d              v_pxy v_pxz v_pyz type auto file S0St.dat ave running
fix          SS all ave/correlate 5 400 $d              v_pxy v_pxz v_pyz type auto file S0St.dat ave running
fix          SS all ave/correlate 5 400 2000              v_pxy v_pxz v_pyz type auto file S0St.dat ave running
variable     scale equal ${convert}/(${kB}*$T)*$V*$s*${dt}
variable     scale equal 1e-32/(${kB}*$T)*$V*$s*${dt}
variable     scale equal 1e-32/(1.3806504e-23*$T)*$V*$s*${dt}
variable     scale equal 1e-32/(1.3806504e-23*400)*$V*$s*${dt}
variable     scale equal 1e-32/(1.3806504e-23*400)*12076.7691711873*$s*${dt}
variable     scale equal 1e-32/(1.3806504e-23*400)*12076.7691711873*5*${dt}
variable     scale equal 1e-32/(1.3806504e-23*400)*12076.7691711873*5*0.001
variable     v11 equal trap(f_SS[3])*${scale}
variable     v11 equal trap(f_SS[3])*1.09339492922931e-10
variable     v22 equal trap(f_SS[4])*${scale}
variable     v22 equal trap(f_SS[4])*1.09339492922931e-10
variable     v33 equal trap(f_SS[5])*${scale}
variable     v33 equal trap(f_SS[5])*1.09339492922931e-10
variable     v equal (v_v11+v_v22+v_v33)/3.0
fix          333 all print $d "${ILstep} ${ILtime} ${ILdens} ${ILtemp} ${ILpr} ${ILpe} ${v}" file visco.dat screen no
fix          333 all print 2000 "${ILstep} ${ILtime} ${ILdens} ${ILtemp} ${ILpr} ${ILpe} ${v}" file visco.dat screen no
thermo_style custom step temp pe press v_pxy v_pxz v_pyz v_v11 v_v22 v_v33
run          8000000
PPPM initialization ...
  using 12-bit tables for long-range coulomb (../kspace.cpp:321)
  G vector (1/distance) = 0.133052
  grid = 5 5 5
  stencil order = 5
  estimated absolute RMS force accuracy = 0.00073741
  estimated relative force accuracy = 5.12103e-05
  using double precision FFTs
  3d grid and FFT values/proc = 1000 125
Per MPI rank memory allocation (min/avg/max) = 10.65 | 10.65 | 10.65 Mbytes
Step Temp PotEng Press v_pxy v_pxz v_pyz v_v11 v_v22 v_v33 
       0    382.08182   -122.48638    10723.046   -869.07884    177.12001   -103.04423 4.1291952e-05 1.7150719e-06 5.8048959e-07 
    2000    426.63282    -122.4131    -6153.557     1520.872   -208.62144   -1561.9003 0.00044957292 -6.8712665e-05 0.00030060307 
    4000    416.45055   -121.64914    3858.9326    -468.1163   -57.490951   -551.22378 -0.000180438 0.00040867291 0.00037577805 
    6000    381.95422    -122.8206   -517.50289   -82.624767    468.23469    215.12986 -0.00014049993 0.00038529437 0.00031821122 
    8000    484.72095   -122.01251    -7733.564   -735.54176    1734.6769   -1000.6029 -4.9080773e-05 0.00038049625 0.00085186178 
   10000    405.43532   -121.30825    8282.3028   -1210.1822   -1033.5258    1818.0806 1.3999888e-05 0.00038755325 0.00050301255 
   12000    370.14755   -122.10941   -7188.1701    949.25859   -67.273957   -720.16517 0.00011732879 0.00032324989 0.00050053231 
   14000    414.85202   -122.52552    5404.7605   -238.40018   -805.78492   -22.969054 4.7508003e-05 0.00024289783 0.0008748651 
   16000    365.90262   -122.81524    1670.4941    865.57409    198.56749     125.5161 0.00016202962 0.0002072129 0.00091238082 
   18000    431.69557   -120.75934   -5613.4671    954.31763    1819.3418     288.2663 0.00015627053 0.0002332918 0.00087027672 
   20000    415.46317   -122.69052    7026.1292   -773.32831   -602.00769    154.31316 0.00040379111 0.00028307705 0.0008102325 
   22000    416.50372   -122.15686   -8599.1407    1662.3362    1827.4913   -793.43719 0.00073056413 0.00029548464 0.00090179885 
   24000    344.82901    -122.8795    3383.9819   -130.88982   -633.86947   -478.18066 0.00073127725 0.00026922884 0.00081810639 
   26000    398.24826   -122.10829    1179.4696    41.363786   -823.00455    -267.0517 0.00067551467 0.00026585606 0.00076220408 
   28000    379.91341   -122.64555   -4120.1588    541.54333    1311.4632   -675.90628 0.00063346762 0.00029125069 0.00070899238 
   30000    421.01706   -121.41227    9888.1056   -1159.6392   -715.91977   -860.90153 0.00072297008 0.00028605961 0.00068461328 
   32000    397.46435   -122.17148   -7548.8017   -454.54052    513.11939    156.24199 0.00085898781 0.00023290876 0.00071839288 
   34000    410.85704   -121.51439    3494.9399     186.1525    446.63506    124.87482 0.00084728381 0.00023375027 0.00065336386 
   36000    386.77867   -122.24648   -2019.2473   -126.02815    2762.2801   -56.327428 0.00080855456 0.00016441088 0.0006976381 
   38000    399.67631   -122.93971   -7465.4931   -430.77226    234.11502   -1563.9871 0.00076695829 0.00013442624 0.0011107113 
   40000    405.43605   -121.99802    7145.2485    501.27631    -58.52872    1708.8575 0.00073049302 0.00017979867 0.0012443005 
   42000     421.2377   -121.90691   -6402.6814    938.82803    1109.7064   -958.31314 0.00069830725 0.00014398473 0.0012614531 
   44000    402.16765   -121.87037    6069.5565   -466.26526   -417.99651    176.30957 0.00070951028 0.00017435904 0.0012526177 
   46000     439.8668   -123.16814     1957.267   -494.42138   -327.02763    594.51185 0.00073121906 0.00018016842 0.0011926115 
   48000    333.80615   -122.91103   -5611.9782    427.71656   -951.65162    -1448.693 0.00072026876 0.00028736704 0.0011407994 
   50000     390.6436   -122.17018    5980.6084    241.13515    395.01195    145.67176 0.0007279719 0.00029778274 0.0011915945 
   52000    436.11792   -121.21045   -7598.8454   -886.42949    130.21945   -1361.7437 0.00075307329 0.00028461675 0.0011356531 
   54000    393.96037   -121.65901    3805.7885   -44.637664    1479.9957    779.40891 0.00072644778 0.00028985865 0.0010935528 
   56000    410.70392   -122.44628    794.90772    80.689281    846.91436   -682.88428 0.00078501779 0.00028023893 0.0010496891 
   58000    454.18619   -121.76196   -3721.8964    1011.2611   -661.83558   -103.55043 0.00081132202 0.00028377847 0.0010105377 
   60000    351.29746   -122.81316    7166.8337   -1023.4632    48.558662    553.53631 0.00086637294 0.00027224183 0.00096891088 
   62000    367.48349   -122.19782   -7642.6009    167.47174   -886.65375   -242.53056 0.00087632531 0.00027324433 0.00093410523 
   64000    362.04422   -121.80672    2798.4027   -553.76756   -381.93526   -1077.5399 0.00083075832 0.00027506082 0.00094805023 
   66000     439.2599   -122.22411   -562.86312   -339.21047    795.91047    861.62412 0.00083563466 0.00027316041 0.00095876788 
   68000    419.14076   -122.14968   -6022.1276    1113.6111    6.1195957    366.37494 0.00081000128 0.00026206315 0.00093333537 
   70000    366.08879   -121.70128    7734.1945    298.16559   -813.96502    13.610411 0.00079519604 0.00026721341 0.00096751961 
   72000    432.46905   -120.77873   -4931.1355    1490.4158    2480.4309   -429.23539 0.00081934576 0.0002808073 0.0010413196 
   74000    396.14408     -121.787     5368.967   -892.44316   -1328.8685     1584.959 0.00081607902 0.0003184442 0.0010685554 
   76000    425.44816   -121.32541    1583.1316   -575.87093    609.74079   -211.56891  0.000875484 0.00036624424 0.0011564543 
   78000    363.96719   -122.96536   -5902.7597     1586.492   -998.21061    183.12493 0.00084074552 0.00035334016 0.0011711143 
   80000    420.19338   -123.01935    4709.5544   -392.81687     637.4756   -1133.3885 0.00082653608 0.00037113654  0.001204369 
   82000    378.77084   -122.79478   -8328.7329   -341.74618   -252.20806    83.855635 0.0007988994 0.0003655112 0.0012205969 
   84000    418.66689   -121.58759    4373.8059    1194.8966    203.45178   -685.24734 0.00082788026 0.00035981497 0.0012217754 
   86000    389.32665   -122.65543    1271.6308    294.38866    437.27057    1208.6151 0.00097782164 0.00036894992 0.0012128917 
   88000    399.66114    -120.9116   -2498.3481    426.50465    318.65864   -992.75359 0.00095750466 0.0003502521 0.0011983698 
   90000    392.13275   -123.53871    6428.0184    -1929.548   -647.71922   -613.32776 0.00092501317 0.0003829511 0.0011874413 
   92000    397.30795   -121.08908   -6469.0076    1280.4586   -261.09127   -138.97908 0.00092365153 0.00037367916 0.0011720731 
   94000    442.76243    -122.3157    3118.4509    452.73399   -31.930925      1345.23 0.00090952126 0.00036705557 0.0011543467 
   96000    403.16256   -121.00941   -110.37044    609.35736   -596.39451    455.80481 0.00098400806 0.00039063338 0.0011282318 
   98000    376.90588   -122.72821   -4804.0104    819.76914    872.78389    245.23037 0.00095325756 0.00047900328 0.0011216143 
  100000    384.83117   -122.45447    7484.5297   -983.86461      -132.29   -1859.0768 0.00094678105 0.00051016029 0.0010975119 
  102000    399.48404   -123.04119   -6445.6821    2602.2458   -1065.2979    1269.5802 0.00092741009 0.00050301946  0.001086152 
  104000    399.26047   -122.60091    4868.1474   -712.49656    -800.1104   -923.12245 0.00095379607 0.0004905349 0.0010611977 
  106000    404.22296   -121.44935    328.16571      345.059   -1223.0224    191.59504 0.00094381841 0.0004864669 0.0010415039 
  108000    398.27913   -121.96877   -5322.8515    1369.1067    501.86615   -883.63137 0.00094138375 0.00047496871 0.0010210402 
  110000    390.09668   -121.30108    5239.5034   -145.36067    205.82413    1889.5301 0.00094739224 0.00047357473 0.0010037021 
  112000    400.35978   -122.47716   -7071.5085    1148.0387    -279.9626   -156.29221 0.00094297818 0.00046719789 0.0010032731 
  114000    445.87331   -122.80344    4237.8126   -785.31608    1233.8493   -381.77655 0.00092438598 0.00046674829 0.0010036801 
  116000    405.83341   -123.20742    1051.3181    277.91234    287.82958   -206.89135 0.00091681992 0.00044869572 0.00098285654 
  118000    391.19945    -123.3337   -3228.6999     -263.613    1840.5178    894.64946 0.00090119261 0.00048907687 0.0009763244 
  120000    399.79516   -121.90755    6543.6514    1165.9747    880.77079   -1762.3289 0.00088749475 0.00047151892 0.00098316166 
  122000    428.27856   -122.34784   -6989.5889   -1020.4253   -1642.4863    924.78993 0.00088438296 0.00045722037 0.00097242397 
  124000    391.48261   -123.01345      1853.14    386.43486   -441.30493    -695.1006 0.00085772654 0.00045147723 0.00096474636 
  126000    359.98508   -122.83704     -295.627    292.16017   -170.21381    601.71888 0.00087801402 0.00044823414 0.00096058021 
  128000    392.54604   -121.62121    -4202.324    -2085.325    1507.6902    961.88884 0.00087509625 0.00044396033 0.00096938477 
  130000    375.19076   -123.13239    6066.9209    1891.5969   -236.56419   -2365.9856 0.00086322449 0.00043534726 0.0009537555 
  132000    395.32532   -121.79786   -4723.9686   -2119.5459    308.63281    521.88054 0.00085521571 0.00043839301 0.00094266455 
  134000    434.40193    -121.2729    4929.2652    2089.3231   -525.68909   -1164.8722 0.0008420371 0.00046912054 0.00094991146 
  136000    401.26556   -121.45299   -343.16621    422.44868    685.68772    1638.6649 0.00083152539 0.00047371532 0.00093358931 
  138000    418.01583   -122.86225   -5326.0376   -420.90101    49.901908    555.35065 0.00083411489 0.00046929519 0.00093548233 
  140000    391.70066   -122.71855    4902.2256     2137.301    2545.2323    159.73331 0.00087812008 0.00047166973 0.00091610287 
  142000    473.96928    -121.8867   -6705.7335    -586.8808    -1371.972    720.79138 0.00085743788 0.00048986242 0.00090902192 
  144000    338.60814   -122.14634    4811.9931    856.34168    652.47314   -1469.3576 0.00084810235 0.00048014809 0.00089344388 
  146000    383.08134   -122.27953    992.41842    212.12354    439.62644    145.82739 0.00083752979 0.00048250908 0.00088807001 
  148000    377.06318   -122.95983   -2608.0522    163.33345    883.85234    390.29953 0.00082035228 0.00049795433 0.00087834537 
  150000    371.86207   -122.61695    5437.5581   -1544.1075     1289.413   -647.83131 0.00081366316 0.00050279433 0.00087212601 
  152000    405.18828   -122.20151   -7488.8622    2249.6428    307.54914   -777.94163 0.00082121196 0.00049646639 0.00086976444 
  154000    421.04365   -122.07004    2389.4445   -465.58566    1150.5925   -290.81661 0.00083970255 0.00049597861 0.00087920497 
  156000    424.27766   -122.93137   -919.08082    757.34173   -129.50944   -453.12272 0.00084622095 0.00050904268 0.00086762749 
  158000    393.26662    -121.1537   -3017.7189    350.16009     728.8829    9.4709041 0.00083915213 0.00052919429 0.00085642351 
  160000    382.57821   -122.89394    5426.8547    461.00276   -1613.8686    181.68735 0.00083030339 0.00054046369 0.0008478415 
  162000    422.85086   -122.60484   -4659.5519   -1548.2616    470.81209   -317.31458 0.00084329294 0.00053565015 0.00083661112 
  164000    419.50567   -121.32573    4147.3098    1199.7327    523.50675   -2142.8296 0.00083417015 0.00055771437 0.00083418232 
  166000    399.15887   -122.57308   -1140.9792    35.221985   -668.33758     243.9667 0.00082243959 0.00055481666 0.00083259105 
  168000    431.46469   -120.77757     -4795.25   -103.90665   -144.56422    2068.5457 0.00081380355 0.00055685351 0.00084526236 
  170000    417.35254   -121.28753    4803.9353   -964.19257     749.9856   -345.43539 0.0008058136 0.00055971223 0.00087889245 
  172000    415.65767   -120.97179   -5150.5784   -172.34527   -814.32253    1254.6655 0.00084047048 0.00055234674 0.00090325479 
  174000    422.44557   -122.39896    4683.5716    -92.39217    1819.7996   -230.94009 0.00084158511 0.00055572101 0.0009172634 
  176000    339.86422   -122.85209    1020.5003   -445.90528    72.627217   -150.12907 0.00083074026 0.00055966864 0.00090788427 
  178000    402.85818    -122.4347   -1788.1762   -23.391996   -592.43679    114.35603 0.00082502466 0.0005552966 0.00090760969 
  180000    400.05049   -122.14039    6227.1357    380.40759    1772.8299   -200.92816 0.00081511646 0.00055436718 0.00089359361 
  182000    449.11861   -121.66828    -6129.743    -539.7517    336.91023   -1468.6429 0.00080670157 0.0005506573 0.00088776373 
  184000    367.38355   -122.67091    2037.7277     433.8069   -223.63851   -978.77806 0.00080102505 0.00054750968 0.00088834695 
  186000    383.41938   -122.42544    107.71621   -738.79441    88.235966   -643.29031 0.00079456946 0.00054418498 0.00087434092 
  188000    376.16335   -122.62689   -3053.8311   -879.63577   -44.307408     315.4739 0.00079358552 0.00055295333 0.00086737054 
  190000     377.0987    -121.9284    6600.3444   -446.99528    690.67446    682.91309 0.00079299258 0.00055034844 0.0008596233 
  192000    398.42778   -121.58269   -4729.5341   -137.37901   -831.73998   -829.61218 0.00078951789 0.00054323096 0.00084682975 
  194000    392.60227   -122.87018    2852.1879    1480.8801    936.70887   -808.15528 0.00077987523 0.00054138558 0.00083645155 
  196000    392.35012   -123.13953   -1106.6391   -291.53078    1289.5054    510.49626 0.00077869085 0.0005334179 0.00082641934 
  198000    387.35032   -123.06447   -4533.0953   -1260.5642    -1330.812   -604.61666 0.00077148807 0.00053005089 0.00082580839 
  200000    408.06275   -122.44187    5029.0284    1828.7435    756.93351   -293.69325 0.00077061357 0.00053023995 0.00081614183 
  202000    386.81262   -121.74117    -3348.423   -616.06417     65.38553     94.61583 0.00076081053 0.00052930152 0.00080848756 
  204000    398.96563   -121.60495    3972.0638   -307.74437   -142.18553    23.665179 0.00075701051 0.00054126281 0.00079903863 
  206000     430.6045   -121.97371    985.80494    1103.7672     15.27446    -1111.552 0.00075047538 0.00053201505 0.00079324983 
  208000    345.72172   -122.65228   -2825.0698   -1081.3737   -232.14186   -992.99451 0.00075934631 0.00052869159 0.00078597052 
  210000    407.95649   -122.22828    3286.2957     1038.882    1631.1069    867.26824 0.00075490875 0.00052179307 0.00079105528 
  212000    416.65168   -121.36204   -5975.0844    1427.2459    1571.9091    299.47916 0.00076285403 0.0005143172 0.0007850828 
  214000    391.47612   -122.28917    2081.8399   -78.354522    1361.3545     479.0158 0.00075215929 0.00050792395 0.0007804166 
  216000     387.1653   -123.38258    1004.0874    969.43666   -933.27045    1216.0146 0.00074979664 0.00055903988 0.0007713318 
  218000    380.58609   -122.73536   -2066.6373   -1370.3482    108.42196   -281.60364 0.00074520461 0.0005771228 0.00076640665 
  220000    395.38751   -122.30967    5294.0138    1536.7679    523.24303     360.4118 0.00073954433 0.00057347364 0.00075863393 
  222000    396.44935   -122.16599   -4311.8691   -519.44911   -1938.9828    421.90201 0.00073066317 0.00056876402 0.00075038294 
  224000     378.6848   -120.84276    2227.0028    431.81157    214.00197   -52.944629 0.00072828305 0.00057170958 0.00074208124 
  226000    394.44486   -122.47266   -1907.1757    28.276637   -1163.9449    105.62156 0.00074075767 0.00056755902 0.00073892236 
  228000    386.16705   -121.79602   -3003.5072    5.9605637    1511.9337    707.33394 0.00073377739 0.00056322931 0.00074079457 
  230000    346.72994   -123.26292    3428.1097    409.95384   -1982.0845   -73.994616 0.0007235074 0.00056574627 0.00074507633 
  232000    345.68757   -122.73838   -3026.9605    1107.9558    1448.0191    498.40913 0.00072112971 0.00055944171 0.00074309599 
  234000      477.656   -121.88067    3566.9333    43.888113   -1095.2247   -1475.6452 0.00071779879 0.00055527937 0.0007388863 
  236000    371.76034   -122.03357    843.36087    165.37857    724.26933    464.29779 0.00071762329 0.00055454141 0.00074307618 
  238000    380.86275   -121.65445   -2894.3412    1995.0205    583.54074    1163.3659 0.00071908226 0.0005522847 0.00075736732 
  240000    409.90043   -121.02044      3337.43   -51.816818   -521.57961    230.74067 0.00071858901 0.00055201476 0.00078279192 
  242000    376.84127   -121.99547   -4184.9138    2202.0024    5.2151182   -429.79812 0.00070955554 0.00055054007 0.00077576287 
  244000     334.7919   -122.23723    2088.6175    -623.4634   -427.50127    510.13106 0.00070444066 0.00054589949 0.00077251435 
  246000    431.47718   -122.00414    835.24108    670.13703     1093.608   -608.37546 0.00070263414 0.00054183452 0.00080159792 
  248000    402.95762     -122.788   -2107.3956     1120.511   -1166.2233   -184.53967 0.00069766476 0.00054035757 0.00082548008 
  250000    383.64476    -121.6833    3685.4569   -1364.7368    1251.6884   -1144.1419 0.00070896353 0.00053453145 0.0008934087 
  252000     394.3648   -122.24371   -5697.5809    2096.8837    1292.8387     168.8599 0.00072619109 0.00053349107 0.00089384662 
  254000      402.628    -123.1581    571.00579    601.77842   -285.03352    1713.3673 0.00073376264 0.00053164043 0.00090847608 
  256000    418.19627   -121.18429   -1400.8213    855.57881    1043.1385    869.51101 0.00074125118 0.00052823979 0.0009188467 
  258000    393.12089   -122.13505   -1549.9819   -245.77579    294.14624    2015.4275 0.00073192727 0.00052410513 0.00095136323 
  260000     369.1287   -122.06979    3792.4545    1170.5097    943.03635   -1148.6562 0.00072772279 0.00053304687 0.00097466147 
  262000    397.13883   -122.92301   -3605.5234    100.20499   -299.92205    1963.5479 0.00072154764 0.00053298616 0.00096943172 
  264000    405.65803   -122.14797    4458.6157   -545.94751    517.69612    -454.6886 0.00072011346 0.00052853686 0.00096562709 
  266000    403.51609   -122.42718   -668.54289   -10.192957   -289.98082    730.06843 0.00071350904 0.00052508579 0.00095624854 
  268000    425.55627   -122.12393   -3300.5101   -159.16355     216.5799   -660.11682 0.00070897297 0.00052119771 0.00095959299 
  270000    372.78653   -121.39432     3376.133   -907.78697    1314.5662   -1712.4478 0.00070284727 0.00051795345 0.00097355239 
  272000    426.58045   -122.47005   -4068.1802   -553.92116    582.85584    546.06589 0.00070692447 0.00053170987 0.00097593554 
  274000    446.24404    -122.0945    2893.2041    -807.3253   -1008.6327   -1153.2635 0.00070055354 0.00052920863 0.00096818099 
  276000    386.05857   -122.98432    219.60335    1769.4909   -684.70315    459.89849 0.00071037286 0.00052555153 0.00096311921 
  278000    458.28545   -120.90045   -1237.5224   -501.23889    346.41987    1119.6423 0.00070521851 0.00052181784 0.00095686861 
  280000    408.70852   -121.17882    4012.2763    629.58687   -327.54095   -309.53015 0.00070117098 0.00052818654 0.00096533075 
  282000    399.51615   -122.91709   -4393.9336    692.97458    1602.4744    197.84229 0.00074998282 0.00052645494 0.00096752413 
  284000     413.0861   -121.88974    1984.2102   -749.67283    -975.6574   -280.80641 0.00074335577 0.00052047236 0.00095678421 
  286000    407.91568   -121.73804   -1084.6644   -1125.9205    563.82908      1004.67 0.00073990201 0.00052028926 0.00095151693 
  288000      430.223    -122.4426   -1129.0344   -770.40414   -308.29442    218.92936 0.00073426282 0.00051620073 0.00095224408 
  290000    415.85765   -122.61934    3942.2404   -143.07106   -983.44246    507.28621 0.00073049255 0.00051461984 0.00094597137 
  292000    333.71804   -122.62565   -3175.3628     117.7527    19.864511    366.21141 0.00072401382 0.00051575499 0.00094320846 
  294000    413.55585   -122.31229    3638.1569   -37.355206    1211.7762    1458.9077 0.0007186018 0.00051327028 0.00093770221 
  296000    384.87838   -123.34215   -2418.8635   -141.28631   -1867.0618   -339.37158 0.00071548758 0.0005100921 0.0009307622 
  298000    401.10703   -121.80574   -2567.1796   -895.24192   -302.54937     1037.442 0.00072098403 0.00050848203 0.00092600469 
  300000    406.75912   -121.35087    1846.7714   -1341.2256   -690.14045   -739.79802 0.00071550374 0.00050438361 0.00091950657 
  302000    446.48834    -123.1749   -3939.8827   -1039.4867   -383.63685   -763.56812 0.00071288209 0.00050853851 0.00092011803 
  304000    389.94759   -122.51271    2875.0311    735.94712    410.20249   -1880.4355 0.0007239249 0.00051356404 0.00091240692 
  306000     416.2844   -122.28434   -659.08656    573.12205   -541.41124   -106.45415 0.0007250219 0.00052964244 0.00090692281 
  308000    394.57695   -122.35871   -400.19026    2103.2051   -575.05375   -299.17875 0.00072093976 0.00053378852 0.00092150497 
  310000    391.92814   -122.51719    1720.1987   -408.37571   -190.42751   -678.77263 0.00071689076 0.00053192391 0.00092532922 
  312000    385.24084   -122.31284   -3898.7472    422.22603    439.57655    169.81525 0.00071258635 0.00053569504 0.00091987009 
  314000    413.19335   -122.33684    2827.7646   -1089.5404   -437.60614    239.44655 0.00070638546 0.00053300934 0.00091851708 
  316000    376.97441   -122.66355   -1458.0735    1612.9545   -461.21669    644.75189 0.00070168417 0.00052851725 0.00092043606 
  318000    379.06853   -122.21245    577.93554   -162.19624    -418.1211    678.47787 0.00070138294 0.00054467859 0.00094466427 
  320000    409.04453   -121.98777    3006.4736   -2009.9952   -355.43472   -863.82887 0.00069636324 0.00055344331 0.00095662112 
  322000    402.60518   -122.28207   -2376.9562    265.48007   -612.09173    853.59714 0.00069394514 0.00054928877 0.0009517371 
  324000    452.47267   -121.58522    2834.1718    573.88673    685.33302   -1508.4742 0.0006903252 0.00054953449 0.00094827399 
  326000     422.6525   -121.96009   -2366.6632    1316.7612   -11.273462    547.09017 0.00068733968 0.00055539008 0.00094890678 
  328000    407.65976   -122.18461   -1576.1511    810.33374    346.22937   -209.57419 0.00069082013 0.00055518417 0.00094906056 
  330000    361.51492   -122.25959    353.21913   -150.38236   -1050.7248     80.72883 0.00069017883 0.00055347869 0.00094344118 
  332000    319.76717   -122.22772   -2213.2411   -51.546052    134.47389    -508.3445 0.00068575359 0.00054958547 0.00094027594 
  334000    438.27675   -122.61756    3358.7595    400.89812    710.63657   -714.22478 0.00068275638 0.00055157052 0.00093455859 
  336000    474.40417   -122.29395   -1390.7623    580.31645    1953.0562    1754.5334 0.00069953014 0.00054822982 0.00095124669 
  338000    359.83173   -122.36621   -299.21367   -1433.9932    247.66313   -803.41784 0.00069160348 0.00054403413 0.00095546725 
  340000    371.83802   -122.14617    483.76961    776.75472   -257.22328    857.37314 0.00070082482 0.00054286118 0.00095233081 
  342000    417.88502   -122.03647   -3044.8326    174.88369     1609.562   -207.99435 0.00069909496 0.00055840683 0.00094663429 
  344000    411.98209   -121.86452    2725.5798   -1001.3333     1181.926   -16.408405 0.00071301826 0.00055335094 0.00094315547 
  346000    399.33671   -122.62411   -2446.9447    126.86983    1032.1184    -10.68478 0.00071813173 0.00055072183 0.00094223512 
  348000    397.82539   -123.31781    1265.1715    413.45854    203.73487   -1022.6862 0.00071497008 0.00055043312 0.00093644614 
  350000    369.89217   -123.13267    1166.4192   -1887.2045   -1257.6094    749.08595 0.00071400785 0.00054765514 0.00093935961 
  352000    467.31831   -122.56164   -2103.3085    1931.8336    702.92605    1263.4547 0.00071015944 0.00054712173 0.00094709038 
  354000    373.80245   -122.79755    1286.3793    1465.7621    1842.3401   -500.70798   0.00070797 0.00054670281 0.00095467815 
  356000    427.89197   -122.66934   -4207.6938   -2460.8447   -677.80555    1728.8446 0.00070558443 0.0005439351 0.0010294178 
  358000    412.72248   -121.95194    772.64814   -488.71801    311.89221   -161.87134 0.00070214352 0.00054171857 0.0010364203 
  360000    378.01891   -122.00921   -564.20927    1188.1277   -174.18049     1220.385 0.00069813884 0.00054389112 0.0010343462 
  362000     371.2629   -122.26896   -1246.8359   -151.97206    986.52133   -215.03067 0.00069450941 0.00054079231 0.0010475085 
  364000    426.71693   -121.90079    4093.8028    1474.8552    560.48683    1749.5933 0.00069928532 0.0005407386 0.0010486614 
  366000    401.49753    -121.6693   -1780.6163    1178.1715   -175.04967   -953.87042 0.00069718803 0.00053831542  0.001043065 
  368000    396.31629    -122.5128    1174.5527    165.24046   -603.70466   -133.68983 0.00069409331 0.00053938882 0.0010376249 
  370000    413.21942    -122.4882   -994.66599    653.10593    120.65796    1430.8776 0.00069123168 0.00054390106 0.0010347345 
  372000    389.74004   -123.19388    -3171.394   -366.72382    841.21144   -932.01605 0.0007000717 0.00054511713 0.0010288207 
  374000    402.29127    -122.0688    2566.7086     163.4702    1520.6606    804.70355 0.00070060888 0.00055236992  0.001024541 
  376000    414.62753   -123.20794   -3508.9826   -1652.4542    1167.7919    183.16904 0.00070026406 0.00055777825 0.0010200264 
  378000    422.53696   -121.96394    2710.2059    931.74135   -1560.7998   -910.16908 0.00070669053 0.00055238955 0.0010232905 
  380000    432.28012   -122.16717    358.42899   -1329.3859    473.67885   -276.92767 0.00071068492 0.00055113067 0.0010140091 
  382000    388.30064   -122.07461    -2226.379    114.80109   -1169.4601    994.07631 0.00071029275 0.00055860658 0.0010199931 
  384000    418.66917   -123.64578    389.90577    1080.5822   -1409.1846    302.49612 0.00070309959 0.00055530136 0.0010167068 
  386000    410.98648    -121.2638   -3479.0172   -11.875037    261.81217   -1150.2467 0.00069937871 0.00055177721 0.0010199772 
  388000    398.62588   -121.68882    824.31122    582.59355   -968.82743    229.71767 0.00069829725 0.00054907279 0.0010286143 
  390000    382.73717   -122.62317   -455.03793   -408.86186   -193.41416   -2193.0622 0.0007044691 0.00054758446 0.0010262969 
  392000    399.52039   -122.97025     158.1669    1530.5409    204.49046   -1497.6081 0.00070425978 0.00054525841 0.0010232785 
  394000    408.44395   -122.20662    3104.5015    238.95571   -686.01275   -1262.3479 0.00070131617 0.00054920853  0.001013066 
  396000    395.61826   -122.39489   -2510.9042    1079.8986   -469.32834   -368.32518 0.00071004008 0.00055007738 0.0010150141 
  398000    390.84463   -123.04352    808.72859   -1053.9122   -356.89722    503.62936 0.00070603567 0.00054482476   0.00100886 
  400000    339.75272   -122.58427   -1301.7361    1318.4751    1178.9854    481.09162 0.00070277349 0.00054172463 0.0010058741 
  402000    424.85319   -123.12768    -1652.119   -760.89012   -2236.0245   -75.692344 0.00070176999 0.0005393541 0.0010009551 
  404000    392.93857   -122.50681    1994.9301   -808.15764    336.44743   -245.52406 0.00070543302 0.00053764845 0.00099483037 
  406000    384.54606   -123.06351   -2076.1401    1170.6457    68.308448    832.81826 0.00070359779 0.00053865657 0.00098943634 
  408000    344.45739   -122.85139    1809.7521    1427.8798   -516.61145    327.32764 0.00070087134 0.00053898549 0.00098903904 
  410000    418.40046   -122.32297   -1169.6525   -149.57894    2911.1637    897.90594 0.00069822081 0.00054092468 0.00099695441 
  412000    454.35264      -121.29   -668.75344    1493.5676    153.48776    28.815056 0.00069484249 0.00053774808 0.00099926031 
  414000    379.99888   -122.81632     42.11613   -2784.0496   -1152.4376   -246.74382 0.00069126922 0.00054096989 0.00099637559 
  416000    338.63009    -121.8696   -2876.4226    1229.9639    1772.9774    -58.77427 0.00068914811 0.00054359885 0.00099678838 
  418000    348.19178   -123.17878     951.2603   -368.04383   -301.83715    528.97398 0.00068643411 0.00054166413 0.00099419885 
  420000    389.06655   -122.88357   -317.19436     2326.203   -807.27103    137.47803 0.00068299539 0.00053794868 0.00098760209 
  422000    444.72502   -122.23047    1153.9299   -771.52074   -239.50303   -932.58347 0.00067912459 0.00053706636 0.0009819399 
  424000    366.95252   -122.38777    2311.0436    830.70467    425.78189   -582.68684 0.00067675093 0.00053518257 0.00097787674 
  426000     435.7753    -122.5983   -1873.0798   -417.70021   -562.58322   -250.36184 0.00067369568 0.00053774847 0.00097511456 
  428000    354.93795   -121.98668    1069.5189   -951.96109    1467.7925     329.9781 0.00067025329 0.00053300254 0.00097484103 
  430000    419.57906   -122.78991   -1850.2515      455.471    380.33065    1023.2738 0.00067431773 0.00053252154 0.00096909592 
  432000    363.34387   -122.41972   -807.79816   -3009.6278   -416.07472   -1208.7305 0.00067449117 0.00053307773 0.00096662043 
  434000    413.22898   -122.01702     1614.819    608.58336   -879.38517   -680.27805 0.00067215183 0.00053030437 0.00096414033 
  436000    409.86083    -122.6555   -1022.1134    2515.5606   -110.19746    -1050.167 0.00067008685 0.00053246726 0.00096127695 
  438000    403.46628   -121.73305    2668.9893   -873.95679   -1110.8545    384.42692 0.00067070972 0.00053238311 0.00096182839 
  440000    505.33996    -123.1367   -1234.7742   -181.59141    327.81544   -72.263029 0.0006699849 0.00053681133 0.00096570991 
  442000    419.32761   -121.81438   -154.25912   -414.25331   -2198.6054   -2717.4453 0.00066884811 0.00053416984 0.0009699752 
  444000    363.83093   -122.35737   -11.750153   -9.0040764    337.55978    1802.9494 0.00066909033 0.0005327917 0.00096782143 
  446000    384.14276    -121.9091   -2302.2167   -850.40732   -701.07879   -156.49808 0.00066666602 0.00053137415 0.0009642568 
  448000    400.24642   -122.09287    2591.9883   -1232.0712    1204.5748   -76.665143 0.00067009338 0.00052983931 0.00096042941 
  450000      409.207   -122.21946   -1405.7926   -701.73015    598.34448   -458.93644 0.00068117658 0.00052696674 0.00096237663 
  452000    383.46867   -121.13967    1377.5251    1277.0343    1419.1296    -661.0736 0.00067738571 0.00052742117 0.00096006006 
  454000    391.55496   -121.81512    531.11294    70.665966   -469.78641     958.7465 0.00067776874 0.00053269485 0.00095606571 
  456000    409.23256   -122.44467   -1837.9271    2007.8058   -1223.6072   -1591.1655 0.00067835104 0.00053144685 0.00095103856 
  458000    392.51801   -122.43841   -273.65178   -2086.2666    445.92846    523.39325 0.00067458352 0.00053005506 0.00094517232 
  460000    427.94316   -121.78851   -526.52238    811.16691    54.541486   -184.76008 0.00067185616 0.00052768909 0.00094200249 
  462000    386.82602   -121.54675    654.16375    468.34064   -1537.3583    240.14879 0.00066950859 0.0005277302 0.00093930619 
  464000    408.13424   -122.39997    821.71561    -223.6625   -385.77648   -744.45127 0.00068930191 0.00052432432 0.00093479171 
  466000    414.57407   -122.30772   -722.24763     -849.875   -1233.7129   -1770.3263 0.00068942011 0.0005245432 0.00093009862 
  468000    463.93468   -122.08077    1565.7478   -582.53536    663.68836    3004.8457 0.00068679459 0.00052411438 0.00092629616 
  470000    376.77925    -122.5672   -1165.5542   -355.62823    185.87015   -662.34485 0.00068373923 0.00052326531 0.00092120916 
  472000     413.2659   -121.69758   -414.88984   -548.17669   -204.33426   -621.18835 0.00068423488 0.00053539259 0.00091682268 
  474000    402.27637   -122.44981   -649.42223    201.14442    2147.0049    1368.0311 0.00069379151 0.00054881539 0.00091608499 
  476000     393.2053   -122.22821   -228.63679   -1404.8891    1656.0617    1293.9756 0.00069035912 0.00055729645 0.0009133546 
  478000    414.33943   -123.00951     1628.038   -287.53785    812.52274   -671.14231 0.00069154186 0.00055997059 0.00091058502 
  480000    421.29121   -121.97822    17.793484   -447.75673    496.99241    414.32278 0.00068877535 0.0005570504 0.00090594552 
  482000    415.60255   -122.61138    933.81111     332.2372   -744.48589   -539.59831 0.00068918986 0.00055490331 0.00090351807 
  484000    359.50254   -122.77976    88.521103    428.50014    424.96158    619.05943 0.00069106462 0.00056100868 0.00089953726 
  486000     412.5399   -122.25089   -1047.2198    1322.1008    2538.0337   -38.842877 0.00069284387 0.00057391077 0.00089569567 
  488000    456.99275   -122.57877   -55.897126    1216.8798   -164.04652    1244.5558 0.00069189901 0.00058109631 0.00089479409 
  490000    429.98664   -122.12967   -1222.4139     1795.204    1064.8533     1438.888 0.00069094621 0.00057838992 0.00089341672 
  492000    354.24259   -121.99452    546.90972    266.44358    703.19214   -530.69277  0.000702464 0.00057667897 0.00089122576 
  494000      366.846    -122.6711    -336.3142   -581.46657    1350.4957    821.83302 0.00069943216 0.00057406737 0.00089088551 
  496000    435.84458   -121.20123    338.80584   -1055.5688    272.96264   -993.36212 0.00069617477 0.00057537578 0.00089320375 
  498000    399.12933    -122.8744    257.74997    1644.7585     1118.314    -452.7908 0.00069676665 0.00057727028 0.00088954258 
  500000    408.47336    -121.9929   -813.43313    375.85046   -169.67969   -1756.4419 0.00069389678 0.00058986276 0.00088672807 
  502000    379.35733   -121.07601   -618.72128    62.431158    1573.9297    1193.0799 0.00069129943 0.00060241424 0.00088379714 
  504000    438.64933   -123.07635   -24.358876   -797.69478    879.99817   -825.70373 0.0006878909 0.00060934308 0.00088527052 
  506000    391.18767   -121.72018   -459.03151   -1423.9052    1060.6079    158.25857 0.00068505152 0.00060846183 0.00088376128 
  508000    405.18153   -122.01787    856.45315    -54.78743    1187.4118   -423.54597 0.0006825703 0.0006044274 0.00089085395 
  510000    419.71733    -121.6595     893.9199   -681.13161   -193.57243    654.59539 0.00067999485 0.00060117638 0.00088897668 
  512000    416.80762   -122.38219   -743.13473    527.37767    221.84413   -1767.4279 0.00067707276 0.00059868853 0.00088494606 
  514000    397.73848   -121.54427    716.98151   -2158.8348   -218.26785    1720.9304  0.000674547 0.00059762471 0.00088164357 
  516000    407.23127   -121.83033   -497.43473    1050.3411   -504.14038   -1585.5956 0.00067537422 0.00060038647 0.00088017514 
  518000    395.06029   -121.77791   -30.476701   -1065.2339    498.79004     727.5982 0.00068060577 0.00059850403  0.000880085 
  520000    382.64057   -121.94364    11.417013   -30.081159    370.75086    1139.8226 0.00068146735 0.00060043648 0.00087785816 
  522000    436.38976   -121.92147    360.63841   -1246.3361    197.51767   -397.28489 0.00068824714 0.00061577216 0.00087400453 
  524000    404.51615   -122.24044    771.20762    194.46372     624.2071    311.81643 0.00068364345 0.00062178608 0.00087048893 
  526000    408.29982   -122.82939   -828.49251   -12.611462    -379.3876      390.075 0.00068235483 0.00062000327 0.00087145006 
  528000    459.66436   -122.26138   -211.15445    505.18241    1893.6076   -390.09639 0.00068035668 0.00061714508 0.00088351168 
  530000    426.55695    -122.6205    -936.7078    107.86903   -105.20121    1490.3547 0.0006793156 0.00061553779 0.00088187511 
  532000    396.24733   -121.56655    113.08312    -88.01387   -177.03842    468.87075 0.00067723812 0.0006141946 0.00087866294 
  534000    386.19983   -122.34256    171.94499    951.18283    716.13211    1864.9168 0.0006741536 0.00061233544 0.0008755738 
  536000    428.48056   -122.13696   -776.00829   -1307.3702    62.346181   -64.719332 0.00067470451 0.00061001825 0.0008763881 
  538000    440.67317   -122.80179    1043.0761    2593.2262   -296.65976    472.08408 0.00067225289 0.00060767198 0.00089821911 
  540000    371.85075   -122.64819   -852.61767   -702.88098   -1612.6707    310.90068 0.00067367977 0.0006153968 0.00089343245 
  542000    424.47325   -122.48973    753.24681    1079.0724   -20.775221    1114.2477 0.00066972223 0.00062677862 0.00089290635 
  544000    353.46932   -122.09372   -310.88476   -229.88223    414.17461   -102.52105 0.00066734966 0.00062516595 0.00089224651 
  546000     436.1443    -121.9842   -1422.3398   -459.77966      362.844    206.15482 0.00066636749 0.00062417945 0.00089070886 
  548000    420.87145   -122.24268    176.11746   -781.80165    562.93323   -410.91354 0.00066372346 0.00062118463 0.0008880154 
  550000    395.81146   -123.04039   -1024.8823    233.26307    1801.2299    682.80022 0.00066591496 0.00062002556 0.00088880591 
  552000    407.33593   -121.20367    1078.0921    654.67731    304.94279   -961.73119 0.00066422768 0.00061706561 0.00088444069 
  554000    402.52104   -123.00731    326.59935    141.81503   -1073.3603   -929.94082 0.00066226502 0.00061510946 0.0008817495 
  556000    390.27976   -122.75694   -182.18506     1104.541   -665.93515   -327.70095 0.00066500733 0.00061327615 0.00087942518 
  558000    413.62132    -121.7316    718.27736   -1405.0434   -2186.3555    1439.6345 0.00066520316 0.00061925298 0.00088066196 
  560000    371.31758   -122.22478   -346.41863   -2478.2325   -824.26904   -1188.4042 0.00066248262 0.00061668895 0.00087879215 
  562000     392.5321   -122.71021    -554.3221    195.94861   -206.15635    667.23483 0.00066094016 0.00061489766 0.00087605073 
  564000    393.59479   -123.21531    61.397958   -775.82632   -1131.0232   -511.25456 0.0006595666 0.00061278748 0.00087557185 
  566000    378.37408   -122.58936   -567.40544   -2221.4265     1986.188   -2740.4514 0.00065641949 0.00061111116 0.00087477297 
  568000     399.5931   -121.70143    66.154645    1134.6017    1336.1953   -222.10961 0.00065315496 0.00060960082 0.00087401401 
  570000    447.85184   -122.91775    381.15224   -130.34631    133.85839    873.03268 0.00065098997 0.00060867086 0.00087404585 
  572000    379.13405   -122.61007   -1657.3776   -679.60435    2350.3836    -1779.291 0.00065094101 0.00060671467 0.00087131614 
  574000    377.39063   -123.03642   -45.857481    484.25318   -2167.0402    1112.1237 0.00065150384 0.00060673397 0.0008709555 
  576000    403.35114   -122.71352   -1573.3779    587.59661    685.33936   -793.20258 0.00065188669 0.00060390065 0.00088104111 
  578000    396.66339   -123.23913   -230.62727    949.30172   -497.26275    704.39261 0.00065663939 0.0006013045 0.00087934003 
  580000    399.86055   -123.21395   -47.337019    854.76439  -0.41097477   -432.60092 0.00065861643 0.00060167565 0.0008821346 
  582000     432.0353   -123.20657    -193.2764   -246.10942   -2131.3279   -650.84296 0.00066217739 0.00060455124 0.00087627142 
  584000    408.26642   -122.33526    806.15196    1358.7939    1389.9794   -89.665672 0.00065924455 0.00060392533 0.00087379859 
  586000    422.50283   -122.24874    -1689.475   -1553.4034    1777.8653   -1163.2117 0.00065836679 0.00061517089 0.00087119455 
  588000    395.03997   -120.96172    1013.2856    1277.3283    -1210.667    1765.3115 0.00065948384 0.00061548193 0.00087244971 
  590000    339.37584    -122.2876   -563.71794    278.84867    67.248152   -336.95313 0.00065602127 0.00061247512 0.00087178152 
  592000    422.62485   -121.14482    804.39842   -621.56804    2323.3047   -566.74085 0.00065384795 0.00061102857 0.00087057915 
  594000    412.26887   -122.71634    1457.2627    2180.5369   -1080.8044   -338.48162 0.0006531549 0.00060836331 0.00087250049 
  596000    415.33537   -122.75526   -1323.8115   -158.28427    496.87531   -2361.0677 0.00065716797 0.00060734532 0.00087796638 
  598000    403.45662   -122.90537    865.03692   -989.47351   -522.17139   -1233.9464 0.00065840901 0.00060525143 0.0008916046 
  600000     436.2174   -121.98759   -595.45796   -1095.1832   -157.65653    816.93415 0.0006606798 0.00060338999 0.00089792538 
  602000    427.81147   -121.49454   -964.68417    2248.3958    1011.5241   -123.06752 0.00066210714 0.00060752754 0.00089521886 
  604000    374.04478   -121.95974    -159.8242    471.64929    208.48657     246.1011 0.00066350695 0.00060620783 0.00089257818 
  606000    424.79158   -122.87141   -1052.0527    749.21716   -1996.5111   -1130.9382 0.00066372663 0.00060490582 0.00089361732 
  608000     391.7223   -123.34136    1719.6665   -760.42216    2022.4392    2410.1082 0.00066225775 0.00060366257 0.00089056906 
  610000    394.44093   -122.22375   -465.37724   -303.22133   -100.01568    -1369.944 0.00066023478 0.0006023155 0.00088866567 
  612000    405.94993   -121.30412    1522.7961    1581.0518   -10.857698    967.96906 0.00065704456 0.00060013714 0.00088581121 
  614000     414.9548   -122.63033    712.28043    16.239753    43.689578    1571.4202 0.00065733648 0.00060041054 0.00088721947 
  616000     378.7756   -122.15887   -1126.1433   -551.40338    1023.4633   -451.41806 0.0006541474 0.00060587233 0.00088486985 
  618000    398.86551   -122.39016    740.48591    498.17586    1031.7624    10.602204 0.00065423105 0.00060351909 0.00088816458 
  620000    424.65909   -122.08333   -1370.4998    257.99983   -868.03556   -775.67368 0.00065454775 0.00060181973 0.00089306009 
  622000    383.50914   -121.72219    712.37276   -1297.7629   -533.53622   -1253.5932 0.00065820477 0.00060019815 0.0008981892 
  624000    374.41021   -121.95001    491.64388   -1169.1246   -185.72562   -547.62944 0.00066058715 0.0005979923 0.0009023506 
  626000    402.94339   -121.90448    -155.0563   -708.75224    810.25507    968.34169 0.00065729245 0.00059620921 0.00090071467 
  628000    400.28572   -122.49991    685.29517   -243.89268    737.63126    871.62128 0.00065511112 0.00059540541 0.00089798443 
  630000     385.2277   -123.41917   -1911.6196   -1.9688575    305.56584    637.67197 0.00065294788 0.00059756717 0.00089566666 
  632000    363.10403    -122.5709   -706.86417    212.95092    3364.5213     1677.669 0.00065107697 0.00059834848 0.00089396679 
  634000    422.51454   -121.57346   -467.10183   -1845.5716    534.42558    1060.7317 0.00065004737 0.00059607308 0.0008947193 
  636000    399.07563    -122.3052   -893.90553   -648.79746   -296.55408   -831.16417 0.00064936415 0.00060577733 0.00089161432 
  638000    446.92356   -121.74226    1756.2283    1021.1078   -1517.8564    1952.2554 0.00064731999 0.00060963147 0.0008893621 
  640000    412.99502   -121.71822   -710.74245     -1556.57   -349.95875    1417.4498 0.00064681784 0.00060801058 0.00088824661 
  642000    406.21412    -121.6452    838.89957    992.16501   -602.16803    -137.9062 0.00064365323 0.00061020561 0.00088783252 
  644000    416.09717   -121.95768     294.8672   -1561.3256   -2056.3254    1532.6018 0.00066093523 0.00061089645 0.00089464581 
  646000    390.31255    -122.2704     -1496.18   -1056.7243    373.43501   -985.76703 0.00066428262 0.00060932896 0.00089365871 
  648000    392.09095   -121.71122   -134.95006    97.667604    248.52383    1232.8659 0.00066180271 0.00061088818 0.00089499146 
  650000    347.78651   -121.48964   -1390.8073    1443.6245   -999.71347    1334.7524 0.00066136416 0.00060963389 0.00089172459 
  652000    385.88163   -121.55889   -42.860323   -211.80365     1413.201    80.150199 0.0006597181 0.00060823226 0.00088844892 
  654000    397.57837   -123.44947   -409.36032     637.6217    656.84956    2338.1602 0.00066629888 0.00060642226 0.00089069928 
  656000    350.53242   -122.59259     36.89896    158.72534    1323.1683   -186.14231 0.00066202263 0.00060463191 0.00088895099 
  658000    394.70761   -121.52895    1670.4365   -196.90158    205.05163   -674.14854 0.00066447163 0.00060427429 0.00088645651 
  660000    423.43887   -122.01117   -887.73292    404.36811   -162.46931    481.36167 0.00066118747 0.00060779775 0.00088520714 
  662000    398.83117   -122.05309    265.12161    1089.3363    234.14496    2176.0465 0.00065655509 0.00060732953 0.00090758135 
  664000    457.73046   -121.81193    547.84896    2078.0496   -553.98754    2208.7745 0.00065460418 0.00060583926 0.00090484506 
  666000    408.45668   -120.69391   -461.60801     1788.757   -241.75507    1470.1443 0.00065316636 0.00060470417 0.00091327296 
  668000    451.28027   -122.04672    1490.3075    -2672.681    1580.8972   -239.13071 0.00065182601 0.00060222786 0.00091016511 
  670000    375.97139   -123.25271   -787.79911   -1377.0295   -338.71352    513.25507 0.00065164857 0.00060129366 0.00090779906 
  672000    436.56424   -123.18147   -550.62504   -959.51709   -354.99435    108.50895 0.00065178053 0.00060096304 0.00091307739 
  674000    414.18044   -122.80261   -1176.7765    1761.8816    -1881.611    455.12032 0.00064974635 0.00060368684 0.0009099712 
  676000    410.54323   -122.39077   -1008.2552    1890.4109   -625.23729    685.67747 0.0006479694 0.00059820017 0.00090785499 
  678000    454.43262   -123.79086    -564.3505   -451.54366    263.74111    1138.9122 0.00064588982 0.00059508765 0.00090539136 
  680000    368.50981   -123.24264   -1209.1194    85.264123   -29.011244   -98.020273 0.00064619283 0.00059638853 0.00090319422 
  682000     367.4624    -122.6095    83.750064     1156.496    1189.9572    1860.0499 0.00064439259 0.00059453118 0.00090038864 
  684000    383.24333   -122.04812    776.17334    919.64783   -97.587548   -2467.2779 0.00064360515 0.00059412709 0.00089753668 
  686000    371.15692   -122.79311   -585.15751   -436.87955   -2214.0147   -1237.6651 0.00063926959 0.00059192468 0.0008952062 
  688000    401.50458   -122.51991    145.65283   -751.30722    1955.9471    242.62271 0.00063734966 0.00059155194 0.00089273017 
  690000    447.56707   -122.66807    -1226.031    1956.3952    566.45482   -224.99692 0.00063772667 0.00059019227 0.00089018941 
  692000    449.31152   -122.39303   -743.95187   -1649.0456    156.35925    1316.2744 0.0006361108 0.00058949594 0.00088784174 
  694000    416.90332   -123.01022   -576.85242     456.6135    -902.7791   -84.211138 0.00064104051 0.00058755475 0.00088540063 
  696000    404.38066   -122.19805   -379.35802    729.40344    1447.0207    2099.2349 0.00064081294 0.00058774686 0.00088276329 
  698000     391.2271   -121.80157    -16.08992   -281.09945    1840.4082    808.74708 0.00063845694 0.00058911527 0.00088083683 
  700000    395.79029   -121.25025   -1135.3028    1398.5104     539.8365    550.59368 0.00063703315 0.00058734253 0.00087969148 
  702000    398.64299   -122.02507   -489.29815   -1303.5034    487.07927   -56.825035 0.00063581329 0.00058731045 0.00087576849 
  704000    381.98046   -123.08023   -886.72376   -29.056701   -854.72982   -118.29347 0.00063821155 0.00058715673 0.00087356358 
  706000    322.73219   -122.37667    522.77689   -393.02116    1324.9989    53.784986 0.00063981749 0.00058573033 0.00087472852 
  708000    388.22531   -123.35731    162.96651   -318.71896   -202.45193    383.99018 0.00063784402 0.00058512544 0.00087761175 
  710000    453.23318   -121.18689    465.38012    1153.9963   -933.29114   -234.60867 0.00063628771 0.00058475847 0.00087554846 
  712000    375.48905   -121.68782       476.07   -1323.5763   -765.31162     771.5759 0.00063474217 0.00058369538 0.00087469698 
  714000    427.57132   -122.49306   -637.52218    9.7026839    633.88529   -516.78903 0.00063454168 0.00058176176 0.00087260127 
  716000     405.0761   -122.16283   -609.81265    -1996.158    493.99216    622.09104 0.00063373611 0.00058047135 0.00087024915 
  718000    378.94614   -122.13218     -1061.34   -73.831055   -448.43228   -1969.5152 0.00063163707 0.00057919289 0.00087282211 
  720000    436.84991   -121.71578   -802.60166    3376.6867    -247.6083   -302.27689 0.00063102848 0.00057862819 0.00088019573 
  722000    401.08172   -121.60529    357.79141     1988.669    822.45461    31.730787 0.00063000805 0.00057804149 0.00087834979 
  724000    405.12611   -122.65044   -558.24231    773.49533     474.6434    679.70417 0.00062896092 0.00057648692 0.00087999158 
  726000    385.28733   -122.94635   -31.532819    1137.4765    2369.5848   -379.34432 0.00063015379 0.00057719149 0.00087981152 
  728000    375.38403   -121.83322     671.0491    875.05369   -95.225375   -138.25368 0.00063052598 0.00058239136 0.00087861838 
  730000    429.94424   -123.00279   -600.11534    1405.5007   -489.85073   -154.38295 0.00063318383 0.00059118761 0.00087540344 
  732000    376.61641   -122.70684    817.29193    823.81941    857.68319    2355.9028 0.00063869364 0.00058848878 0.00087371327 
  734000    389.38577   -123.02065     -998.016   -1983.7091    120.75922   -1051.5635 0.00064070351 0.00059093593 0.00087311989 
  736000    382.82421    -123.5514    -175.2388    1244.0075   -2108.3761   -220.87393 0.00063893067 0.00059019906 0.00087284064 
  738000    457.17972   -122.58796    -119.1235   -372.81609    1919.9575   -2535.5294 0.00063883719 0.00059033413 0.0008735429 
  740000    433.57283    -122.3875   -707.51256   -771.63724    60.147162    -596.4177 0.00063711519 0.00058945853 0.00087180054 
  742000      420.676   -121.97951    677.89434    485.86873   -421.83735    304.28734 0.00063637228 0.00058740719 0.00086894351 
  744000    407.89521   -122.18011   -981.85157   -2311.7285    829.54678    99.895854 0.00063515473 0.00058610342 0.00086605397 
  746000    382.97579   -122.01349   -526.27013      1006.99   -222.48536   -1579.4292 0.00063347579 0.00058529265 0.00086569217 
  748000    396.98171   -120.55154    407.37698   -302.03315    985.78737      389.317 0.00063240178 0.00058638883 0.00086310384 
  750000    414.52299   -121.85643    -577.7155   -514.18353   -332.86246   -522.61745 0.00063120995 0.0005848355 0.00086714757 
  752000    417.20629   -122.38863    1089.3517    554.15562    1409.7154   -120.34526 0.00063024173 0.00058373033 0.00087063252 
  754000    387.87106   -121.99052   -778.48943   -239.81241    702.19175   -120.60386 0.00062873699 0.00058426379 0.00086866107 
  756000    415.03154   -121.97372    956.79863   -464.25041     -3206.88    962.34389 0.00062709605 0.00058234569 0.00087683404 
  758000    378.54535   -121.38071     596.6167    147.06723    2650.8123   -1511.3086 0.00062793926 0.00058099523 0.00087654031 
  760000    394.81782   -121.66008   -1651.0654   -1323.6947   -3474.0024    191.81435 0.00062690145 0.00058983018 0.00087475634 
  762000    390.06929   -122.90053    730.92708    123.76799    1555.3675    271.54049 0.00062523341 0.00059063247 0.00087360492 
  764000    341.62173   -122.31075   -2127.3584   -1407.0114   -2476.6901   -398.64708 0.00062387758 0.00059043417 0.00087392197 
  766000     421.4513   -122.16128    1379.3199    -249.0475   -741.21208   -688.46881 0.00062222293 0.00058907604 0.00087176032 
  768000    391.55585   -123.02096    39.092252    1623.9855   -56.877966   -464.71378 0.00062595967 0.00058777665 0.00087070589 
  770000     396.6657   -122.64865   -1270.1207    1196.5141    896.61793    233.01443 0.00062911117 0.00058606185 0.00087337135 
  772000    376.45655   -121.79833    1381.6084    461.37218    72.842019    876.72511 0.00062857699 0.00058803659 0.00087182909 
  774000    395.24371   -122.87044   -1861.0236    976.71135    625.25906    -791.1822 0.00062718709 0.00059215802 0.00086964855 
  776000    425.99217   -123.29902    1002.9737    133.44707    706.38911    131.27151 0.00062522171 0.00059026745 0.00086952291 
  778000    392.10696   -122.00941   -234.79192   -1782.7691    1557.3103    269.69347 0.00062662084 0.0005890138 0.00086935346 
  780000    387.88994   -121.01043   -259.18698    496.96259    1040.9174    1377.9578 0.00062663794 0.0005898596 0.00087780244 
  782000     409.2089   -121.57332    2889.8612    11.277719   -1096.9065   -625.17705 0.00062470475 0.00058691718 0.00087808394 
  784000    375.16137   -123.60738   -2821.1447    917.55824   -2369.0983   -222.37612 0.00063251214 0.00058535016 0.00087544368 
  786000     399.7477    -122.4623    2076.4161    3.4012276    1258.1589    605.33013 0.00063340479 0.00058414453 0.00087686608 
  788000    412.81778   -122.08855   -233.14962    2205.8111     -1.44286     914.7658 0.0006319726 0.00058580068 0.00087740591 
  790000    391.20338   -123.47603   -1868.9254   -865.22446    -298.4298   -341.02287 0.00064224575 0.00058368517 0.00087494706 
  792000     395.1005   -122.36115    734.63211    1283.6798    124.04928    1453.6002 0.00064299412 0.00058223486 0.00087329439 
  794000    412.65974   -122.81936   -2555.3427    1891.2062    929.19534    46.597972 0.00064351047 0.00058205175 0.00087095553 
  796000    410.25187   -122.81621    1255.6472    975.97046    1614.5325    8.0701971 0.00064601103 0.00058014684 0.00086939273 
  798000    400.85988   -121.89353   -844.28616    1378.0267   -1204.8895   -996.50687 0.00064443702 0.00057869227 0.00086798799 
  800000    386.68729   -123.10017   -433.76825   -1509.3817   -352.72818   -19.131091 0.00065030667 0.0005787241 0.00086601363 
  802000    373.31094   -122.24534    434.41058   -848.15725    458.35992    -460.4412 0.00064778225 0.00057741049 0.00086371068 
  804000    374.28461   -121.83947   -2257.4293   -1838.8124   -548.00721   -646.20103 0.0006461362 0.00057899075 0.0008628068 
  806000    391.39442   -121.65393    2005.8876    604.50524    1402.9574    2090.4825 0.00064498785 0.00057868337 0.00086087857 
  808000    386.00819   -122.47675   -790.32756    -399.6113      859.823   -293.78168 0.0006441387 0.00058122522 0.00085954831 
  810000       348.86   -122.54355   -17.914848   -260.94428   -1158.0612    966.37394 0.00064263642 0.00058833263 0.00085813469 
  812000    454.45622   -121.25446    1418.8154   -1287.9219    582.59857   -799.34612 0.00064619459 0.00059282895 0.00085554211 
  814000    392.18402   -122.30333   -1368.4069   -1492.0424    1803.6952    247.82263 0.00065368257 0.00059255362 0.00085341474 
  816000    403.54448   -123.06514    878.34839    806.74304   -618.06769    -729.5526 0.00065366525 0.00059765912 0.00085163338 
  818000    453.57188   -121.04289   -1955.2698    192.95238   -1037.9052    -1661.606 0.00065495633 0.00059552591 0.00084987561 
  820000    386.76648   -121.52426    97.854795    817.68503    1237.9321    1589.4022 0.00065348992 0.00059511067 0.00084867214 
  822000    391.39229   -121.36845    322.80145   -2235.4723    3992.2513   -142.07616 0.00065166517 0.0005953495 0.00084600176 
  824000    381.03305   -121.82108   -1930.0095   -412.86482    1548.8518    -82.91568 0.0006516974 0.00060474585 0.0008546027 
  826000    354.82618   -121.54099    1852.5242    28.005348    269.55242   -35.485841 0.00065017285 0.0006022549 0.00085780095 
  828000    389.86583   -122.61644   -2044.4604    1144.9756    530.87175   -1358.2355 0.00064861877 0.00060089729 0.00085738237 
  830000    399.18948     -122.594    260.96974    656.71216   -618.02637    471.48853 0.00064732655 0.00060164064 0.00085460392 
  832000    383.60096   -121.31987     569.8639   -734.75974    1502.7084    1243.2767 0.00064785895 0.0006016591 0.0008527347 
  834000    403.36264   -121.43135   -1244.3604   -656.25438   -1230.8254     1139.874 0.00064791388 0.00060043606 0.00085596301 
  836000    399.36245   -121.88702    1632.3576    1034.1434    956.01008     -781.046 0.0006516505 0.00059981797 0.00085425875 
  838000    382.66832     -122.321   -809.85129   -1127.7545   -194.56939     -441.687 0.00064980874 0.00060026369 0.00085152106 
  840000    405.23324   -122.80769    731.07302    965.67978    224.67349   -1257.4917 0.0006481389 0.00059961267 0.00085357055 
  842000    409.60527    -122.4263     759.0697    263.62253   -1982.2336   -2378.5422 0.00064669248 0.00059842539 0.00085576705 
  844000     397.8937   -123.29032   -1541.2618    2187.8823    366.06101   -222.10129 0.00064484199 0.00059701393 0.00085780505 
  846000    423.89141   -123.13688   -146.26047    456.85763    792.60796   -1122.0321 0.00064405111 0.00059650848 0.00085619426 
  848000      401.884   -122.01089   -1848.5501    2052.2343    1884.6317   -1428.6521 0.00064488343 0.00059595968 0.00085662134 
  850000     356.4413   -122.71309   -508.60223   -493.44089    1545.3173   -49.421565 0.00064553496 0.00059566579 0.00085613803 
  852000    323.18502    -123.9856   -9.8781135   -1290.8877    1072.3109   -1494.5168 0.00064447821 0.00059425633 0.00085341691 
  854000    382.26679   -122.66186   -1807.3569   -688.64637   -1059.0815    468.46288 0.00064769554 0.00059308936 0.00085158984 
  856000    431.30021   -122.63041    2075.5836    531.59801   -1649.0584     350.8855  0.000648323 0.0005945316 0.00084977252 
  858000    403.47138   -123.39592    -1666.166   -1176.5429    -2590.255   -290.82475 0.00064664937 0.00059308163 0.00084766081 
  860000    411.41548   -122.47768    882.21877   -1563.9241   -568.26128    1335.3251 0.00064602527 0.00059183759 0.00084575753 
  862000    402.22733   -122.75914    1023.6311    -60.99705   -656.98309   -2620.9406 0.00064397655 0.00059377917 0.00084429647 
  864000    400.53837   -122.16037   -1344.0687   -2316.4671   -2204.4547     208.8499 0.00064267572 0.00059524203 0.00084272689 
  866000    432.64685   -122.50249    1828.5794    715.05997    1669.3229    3496.4283 0.00064144549 0.00059358302 0.00084133915 
  868000    425.16231   -121.78662   -1479.0967   -1684.0518   -1974.2872   -1358.7434 0.00064094781 0.00059388153 0.00084177001 
  870000    393.00895   -122.35601    269.72153    -311.7469    496.83213    2351.1345 0.00064608884 0.00059511931 0.00084288405 
  872000    432.86441   -121.51762    1026.2705    102.27026    585.41623    -2833.287 0.00064783033 0.00059392084 0.00084252588 
  874000    379.05356   -122.20005   -1586.7896    300.83274    1708.1475    47.354103 0.00064662593 0.00059493513 0.00084728147 
  876000    399.71816   -122.62174    601.10119    1962.1164    -1196.508    1375.0296 0.00064583119 0.00059345668 0.00085107079 
  878000    380.02027   -122.81739   -1205.0122    -340.7002    -618.1824    322.37387 0.00064712881 0.00059269158 0.00085293053 
  880000    396.35737   -121.46828    376.12757    735.07888    -1573.817    1734.3071 0.00065238997 0.00059184388  0.000852258 
  882000    427.77275   -121.37808    1529.5364   -267.24211    39.467779   -662.55026 0.00065451586 0.00059042684 0.00085072287 
  884000    375.60436     -122.126    -1080.054    672.96184   -797.32216   -255.63967 0.00065172124 0.00059132996 0.00085628264 
  886000    423.17696    -121.4866    1909.7764    1608.1749    87.921007   -157.94023 0.00065097416 0.00059073464 0.00086814057 
  888000    387.28091    -122.7551   -1177.0061     433.5522   -249.87365    700.87192 0.00065254939 0.00058977558 0.00086826736 
  890000    399.87575   -122.45081   -952.11502    3341.2287   -846.49069    785.57508 0.00065577104 0.00058929604 0.00086877291 
  892000    433.63561   -121.96618    131.92747    704.41503    -499.6385   -2039.6848 0.00065841317 0.00059096893 0.00086720175 
  894000    379.10084   -122.59839   -2355.9621   -986.87657   -123.99477   -650.03137 0.00065703157 0.00058995013 0.00086521356 
  896000    412.71209   -122.58448    435.85152    464.57738   -2054.1442    679.36881 0.00065555931 0.00058949423 0.00086292679 
  898000    399.45181   -121.75606   -669.35245   -158.48946   -315.42456    2468.8605 0.00065475873 0.00059013294 0.00086096361 
  900000    382.32199    -122.2369    843.87608    1126.0422    87.572622   -207.92661 0.00065330548 0.00058625027 0.0008634246 
  902000    385.00322   -122.11701    999.18946   -235.11922    1561.0458    971.98562  0.000650909 0.00058587791 0.00086769294 
  904000    418.21992    -121.7279   -1239.9398   -993.71961    314.77147     1943.756 0.00064882729 0.00058501596 0.00086687786 
  906000    406.96886    -122.1784    927.35087   -1140.0052    1952.8039    2112.9601 0.00064826995 0.00058497162 0.00086493824 
  908000    384.59941    -121.9745   -2404.8852   -3282.7417   -574.61384   -438.36599 0.00064631394 0.00058726341 0.00086422115 
  910000    382.44177   -122.55498    1309.6621    -439.9571    815.59332    1459.9421 0.00065066598 0.00058584267 0.00086249323 
  912000    388.53139    -122.0795    383.60295   -402.43567   -559.51233   -323.26622 0.0006540725 0.00058487631 0.00086208074 
  914000    418.53439   -123.06326   -766.55953     2541.867   -441.49903    2990.4211 0.00065205832 0.00058827103 0.00086052136 
  916000    422.39972   -121.86751    1469.2322   -488.46436   -2250.0622   -1642.4419 0.00065319564 0.0005880407 0.00085785575 
  918000    400.72554   -122.70712   -2266.8375   -1640.6801    779.73923    1299.9298 0.00065621371 0.00059228678 0.00085675083 
[...]
 7716000    424.78432    -122.5805   -1155.9818   -3147.8964    3205.1621   -2929.0538 0.00068133566 0.00070502126 0.00072651863 
 7718000    414.32257   -121.96285   -5859.1364    -1014.672    5142.2925   -2345.0794 0.00068175871 0.00070530968 0.00072634625 
 7720000    388.94718   -121.91083    8383.5568    1361.7433   -5496.7505    2278.6698 0.00068182027 0.00070495703 0.00072634145 
 7722000    347.28651   -122.17714     -6391.56    2574.8187    2839.0129     -5870.94 0.00068194149  0.000704822 0.00072663493 
 7724000    407.56305   -122.60802    4840.1628    1803.6727    808.28741    5588.9229 0.0006818261 0.00070471422 0.00072663056 
 7726000    439.93058   -121.11857   -1486.1523   -183.76503   -1878.1622   -7046.2963 0.00068171465 0.00070546178 0.00072661014 
 7728000      382.477   -121.97939   -5504.2328   -74.604895    2948.6782    2573.4577 0.0006818455 0.00070565981 0.00072698387 
 7730000     377.6642   -122.65491     2742.483    3340.6995    2543.5776   -3201.9251 0.00068170642 0.00070585933 0.00072705956 
 7732000      378.496   -120.98616   -8982.0153    1262.4295   -2031.9715    1856.7707 0.00068177224 0.0007058037 0.0007272706 
 7734000    392.08769   -122.25678     5741.542    3253.8872    2055.9563    3588.6995 0.00068185726 0.00070573068 0.00072785825 
 7736000    373.22775   -122.22379   -1834.4672   -4774.3003    53.827535    1715.5815 0.00068165203 0.00070593577 0.00072787202 
 7738000    373.55596   -121.66433   -300.63971    1949.9105   -2888.1999   -2212.1007 0.00068150479 0.00070596133 0.0007278788 
 7740000    352.38817   -122.69739    3373.4115     -3125.43    6268.1712   -1855.1341 0.00068136054 0.00070599285 0.00072775722 
 7742000    401.92175   -121.75997   -6970.1428    4967.7698   -3075.1989   -2012.2861 0.00068118192 0.00070596576 0.00072746064 
 7744000    418.09591   -121.18746    3419.3168    99.639935    4859.0336   -3708.5723 0.00068102738 0.00070582927 0.00072731463 
 7746000    390.22891   -122.48642   -6016.3155   -1415.3107    4298.1469     29.69859 0.00068102388 0.00070578441 0.00072715958 
 7748000    404.56641   -122.31612    1187.8311   -916.95085    50.628417   -1717.3584 0.00068083266 0.00070571294 0.00072698304 
 7750000    420.43598    -121.9166    1921.7199   -186.89606   -1757.6766   -2080.2155 0.00068068403 0.00070556325 0.0007268408 
 7752000    395.71674   -123.06686   -4674.3264    1044.9086    5970.9431    5205.0959 0.00068061789 0.00070533918 0.00072684703 
 7754000    395.00343   -122.43355    6214.8306   -1880.3219   -2998.5594   -2628.2507 0.00068045899 0.00070523586 0.00072676752 
 7756000    387.16142   -122.25256   -8188.8634    -571.6687     659.1941    3326.9482 0.00068070243 0.00070537513 0.00072661929 
 7758000     435.1673   -122.25911      -341.23   -6969.2656    6843.6393   -3910.3155 0.00068131096 0.0007057574 0.00072650345 
 7760000    358.29019   -122.52113   -1541.6545    5428.6254   -777.27179   -2977.7608 0.00068195694 0.0007059325 0.00072652906 
 7762000    367.32164   -122.05526   -3814.4809    807.26583    741.77417    445.45336 0.00068197477 0.00070573929 0.00072648052 
 7764000    393.72176   -122.11344    6006.7625    3008.1871   -1001.1193   -4258.7868 0.00068257229 0.00070558941 0.00072628194 
 7766000    376.12558   -122.78358   -4970.2715    2307.5446   -4072.4865    271.31401 0.00068275132 0.00070542887 0.00072609323 
 7768000    355.58158   -122.62623    4810.8945   -2854.4242    3894.2216   -5107.3379 0.00068263857 0.0007053262 0.00072591957 
 7770000    409.07484   -121.55409   -3470.9079   -6093.7301   -510.83985    1935.4599 0.00068251869 0.00070558622 0.00072579724 
 7772000    414.75654   -122.38818   -3966.6955   -2595.3316     -1749.86     -898.714 0.00068223468 0.00070560248 0.00072565725 
 7774000    461.99632     -122.888    2256.5163   -6186.7576    4240.4067    6664.1624 0.00068239507 0.00070542215 0.00072555114 
 7776000    396.82403   -122.15282   -9169.3395   -1966.3085    1037.8481    -1004.162 0.00068254692 0.00070519801  0.000725341 
 7778000    385.92707    -122.5952    5687.7434    1701.5276    225.24252     4379.203 0.00068247902 0.0007050655 0.00072525447 
 7780000    389.65959   -122.62609   -2741.5804   -942.31864   -3839.7362   -1498.9388  0.000682318 0.00070537953 0.00072506438 
 7782000    390.52999   -122.68374    1161.2899     7632.243    5952.3226   -2036.5453 0.00068249982 0.00070517481 0.0007251122 
 7784000    404.49679    -121.3416    3209.9673    3665.7522    2200.0206    2415.0305 0.00068293863 0.00070506428 0.00072572091 
 7786000    418.70068   -121.71596   -6659.7419   -591.43899    498.40723   -483.46208 0.00068283993 0.00070494335 0.00072567154 
 7788000    393.94359   -123.51263    3702.0545   -3081.6677   -2743.5287    4450.3975 0.00068277098 0.00070497957 0.00072563906 
 7790000    442.74155   -122.67137   -8547.8927    3792.7449    1504.5112   -3133.1366 0.00068264705 0.00070476786 0.00072612911 
 7792000    401.05769   -123.23203     998.6855   -297.97245   -1415.4536   -1666.0578 0.00068247181 0.00070465409 0.00072651915 
 7794000    383.65309   -123.21374    177.33312   -3179.7686    4486.2612    1071.3214 0.00068242037 0.00070451641 0.00072788382 
 7796000    404.15403   -122.72809   -2497.2766     138.3814   -1593.1362    -1990.012 0.00068237401 0.00070437038 0.00072858183 
 7798000    352.83982   -123.00389    4011.4357    171.81191    1259.5294    1170.0528 0.00068252386 0.00070465601 0.00072851819 
 7800000    400.99798   -122.50289   -5748.2583    -1194.461   -3174.2898    220.22305 0.00068230752 0.00070443155 0.0007282783 
 7802000    404.06899   -123.64584    2659.5727   -2056.0567   -5871.7345    -2049.446 0.00068240574 0.0007043177 0.00072808477 
 7804000    410.20706   -123.04923   -3534.7574     1498.502    4918.9728    2291.7411 0.00068233089 0.0007040984 0.00072819937 
 7806000    396.06622   -122.43898   -3514.1805    206.41122    4500.0893   -561.15069 0.00068303334 0.00070414525 0.00072818804 
 7808000    355.19621   -122.30049    3555.9259    3243.2763    94.153222   -1914.5114 0.00068306561 0.00070411677 0.00072822957 
 7810000    430.60278   -121.93781   -7263.7253    2229.3754   -886.76324    910.91124 0.00068307674 0.00070398105 0.00072821124 
 7812000    424.13293   -123.19513    3748.8783   -697.90499   -2591.2611     4926.714 0.00068318346 0.00070381135 0.00072805781 
 7814000    398.21354    -122.8811    -2210.566   -4841.0105   -2429.2494   -963.84542 0.00068300207 0.00070370704 0.00072790046 
 7816000    382.03647   -123.59333   -2200.9505   -2082.1235    2511.4273   -498.64784 0.00068279739 0.0007034698 0.00072778367 
 7818000    405.28023   -122.87364    527.55163   -2628.3895   -661.97742    4505.4956 0.00068263033 0.00070346959 0.00072761858 
 7820000    400.41641   -122.90597   -5656.8611    1041.6106   -1125.9809   -2645.4832 0.0006825795 0.0007045688 0.00072747328 
 7822000    430.47772   -121.78496    3362.2693    904.62476   -8105.4577    1003.6779 0.00068279474 0.00070445179 0.00072752709 
 7824000    408.21075   -122.41446   -5163.1207    194.17771   -2235.7737    566.41411 0.00068269221 0.00070432212 0.00072762123 
 7826000    388.90485   -122.47355   -240.72911    4534.2541   -4083.3458   -1168.3044 0.00068268615 0.00070405514 0.00072756477 
 7828000    354.20626   -122.51051    1122.7398   -1035.1856    1210.1692    6388.6698 0.00068246908 0.00070401423 0.00072741384 
 7830000     380.2554   -122.54772   -4847.6863    5108.4199   -1055.5789   -4026.8676 0.00068243727 0.00070421225 0.00072726436 
 7832000     428.5783   -121.89271    4096.4061   -3285.6598   -484.27267   -4332.9923 0.00068243276 0.00070429437 0.00072725675 
 7834000    375.95124   -123.04336    -3384.181    1125.9255   -2846.5958    180.98244 0.00068235287 0.00070443199 0.00072705495 
 7836000    390.83328    -122.6145    1025.7696   -3196.2024    761.09931    1006.4864 0.0006828132 0.00070426819 0.00072699919 
 7838000    408.76941   -122.15763   -646.04543   -307.72058    494.12049    2612.9924 0.00068271401 0.0007043005 0.00072727314 
 7840000    374.03797   -120.72961   -3877.9501    5829.8447    7169.4875    750.17823 0.00068284489 0.00070411712 0.00072729342 
 7842000    377.70987   -121.01768    4459.5221    690.34422   -407.68983    4636.2183 0.0006828496 0.00070395508 0.00072705109 
 7844000    379.49985   -122.72433   -5976.6168   -1314.3104    2083.9412    -5125.471 0.00068275711 0.00070376118 0.0007275683 
 7846000    376.81329   -123.16111    2021.0643   -182.99368    1282.3363    2049.1235 0.00068302631 0.00070361412 0.00072784089 
 7848000    388.81095   -121.34954    288.69385    3298.9763    3093.3496    1113.0404 0.00068295835 0.00070361218 0.00072775279 
 7850000    351.40173   -122.03269   -3305.3524    -2491.497    5985.2769    -3867.634 0.0006827777 0.00070327975 0.00072808284 
 7852000    399.95162   -122.66249    2280.5969   -314.12049   -3921.4335    3488.3427 0.00068306617 0.00070352071 0.00072803167 
 7854000    388.34991   -122.30963    -5530.817   -3155.5006    3942.9109    1153.8375 0.00068305765 0.0007033171 0.00072813826 
 7856000    424.77102   -123.03147    1850.9874   -2355.9881    -457.4073    3850.0225 0.00068283558 0.00070320702 0.00072843436 
 7858000    406.50773   -121.85464   -2602.2297   -1762.1104    5828.9974    1266.5656 0.0006826334 0.00070298959 0.00072855398 
 7860000    386.41957   -122.45341   -1028.3107   -1888.6999   -1885.8138   -3653.5145 0.00068255693 0.00070282152 0.00072857734 
 7862000    388.52541    -122.1127    2312.7212    210.74144    1103.7248    2483.6312 0.00068302992 0.00070267952 0.0007284274 
 7864000    457.33159   -121.85026   -4419.8727   -2880.6164   -3161.1623   -682.31758 0.00068320671 0.00070295162 0.00072831762 
 7866000    405.67833    -121.9704    3488.8954    2788.1251    1776.3502     3744.964 0.00068316992   0.00070282 0.0007281671 
 7868000    391.66371   -121.12713   -1876.2352   -1911.6658   -3924.2624   -1501.7689 0.00068300027 0.00070273015 0.00072802336 
 7870000    342.36643   -120.81824    -516.2483    4089.5775   -3153.4069    986.03049 0.00068283396 0.00070254142 0.00072816025 
 7872000    426.46105   -122.44034   -1021.6741     1466.031    4142.4751    330.21133 0.00068266305 0.00070229428 0.00072803334 
 7874000     432.9352   -121.91068    -5279.674    841.25775   -1197.7933   -1501.4409 0.00068245442 0.00070240224  0.000727939 
 7876000    387.53446   -121.47767    2319.8575   -143.47374    9443.1311    1552.6766 0.00068239232 0.00070227576 0.00072768177 
 7878000    436.83625   -122.73785   -2825.0359   -1669.8477   -3855.3629   -4218.5852 0.00068249661 0.00070233048 0.0007274286 
 7880000    417.85593   -121.94897   -404.84549   -2471.9784   -1810.5027   -4434.0766 0.00068271403 0.00070258039 0.00072724152 
 7882000    375.95511   -121.51697    2016.6375   -1983.8137   -1729.0966   -1520.0409 0.00068266874 0.00070258755 0.00072702009 
 7884000    391.17536   -122.23159   -3557.4007   -829.60955    6435.2855    783.30752 0.0006835812 0.0007026883 0.00072691259 
 7886000    453.26573   -122.14709    2549.8955    2423.1983   -201.91086    5612.9695 0.00068422565  0.000702832 0.00072672092 
 7888000    406.71258    -121.8213   -2359.1971   -146.19248    2942.6053   -1530.2682 0.00068431536 0.00070284152 0.00072641383 
 7890000    399.86366   -122.16732   -657.00898     205.1793    1314.3901   -3473.9544 0.00068411654 0.0007026552 0.00072633999 
 7892000    406.22602   -122.39225    588.77951   -2889.9253   -6149.2274   -3984.9563 0.00068399417 0.00070256545 0.00072624098 
 7894000    377.68794   -122.23481   -3197.9227    2696.4962    3926.5993    2905.3838 0.00068404631 0.00070261044 0.00072633925 
 7896000    381.88468   -121.14887    1250.4759    -4873.003     4135.383   -2080.1594 0.00068493269 0.00070288425 0.00072611103 
 7898000    432.94178    -121.8434   -2615.7604   -163.02499    3946.3167    4694.7545 0.00068525512 0.0007029942 0.00072593898 
 7900000    372.99158   -123.17251   -1405.6916   -2028.7051   -3597.4575   -1039.9974 0.00068559427 0.00070274307 0.00072588198 
 7902000    391.63956   -122.61786    482.62595   -5044.2651    1554.7531    3036.1751 0.00068595062 0.00070257618 0.00072575324 
 7904000    413.90412   -122.32191   -2116.0498    5958.0793    152.99144     934.3243 0.00068622692 0.00070248847 0.00072615806 
 7906000    384.65375   -122.74107    1929.0031   -220.25347    1086.6015    3039.9742 0.00068627362 0.00070257904 0.00072644729 
 7908000    461.44817   -122.57948   -763.40283    1841.6834    2267.8066    786.84098 0.00068613349 0.00070256475 0.00072643839 
 7910000    393.34784   -122.32454   -1914.6243    69.145866   -3293.9295   -2617.9296 0.00068647876 0.0007028862 0.00072618666 
 7912000    463.36692   -122.08286   -1260.5203   -271.60243    4307.4376    7345.0069 0.00068631195 0.0007028033 0.00072603781 
 7914000    404.52718   -122.56782   -5775.4993    797.56761    881.59314   -3460.6199 0.00068617182 0.0007027055 0.00072599494 
 7916000    399.04517   -122.18684    503.09137   -2969.4141   -1992.7681    4563.4447 0.00068601908 0.00070260993 0.00072598549 
 7918000    422.98905   -122.59442   -2651.9302    2072.2091    -1709.091   -5369.5903 0.00068584793 0.00070240882 0.00072608216 
 7920000    384.53232   -121.69689    573.07015    256.21786     1360.184    949.08497 0.00068567109 0.00070218139 0.00072599627 
 7922000    419.57789   -121.94313     2809.127    -671.8841    1890.8865    4600.8024 0.0006855234 0.00070218573 0.00072591934 
 7924000    374.69148   -122.65556   -2278.9506    1201.0659   -156.97288   -3603.0225 0.0006855059 0.00070187298 0.00072576207 
 7926000    456.55372   -122.87978    2471.2148    -2250.001    3333.6231   -996.06304 0.00068531826 0.00070166747 0.00072561239 
 7928000    391.97269   -123.06379    -3299.791    697.53396    2215.3912   -1817.2536 0.0006851606 0.00070150589 0.00072541449 
 7930000    383.96864   -121.93852   -910.36442   -827.09201    2568.9884   -5225.1055 0.00068501533 0.00070137192 0.00072577197 
 7932000    350.80021   -121.91363    -1040.333    326.62711    3476.2212    364.01415 0.00068479619 0.00070120217 0.00072566075 
 7934000    409.87322   -122.39694   -3879.3208    2238.9327   -1176.0227    1386.7774 0.00068459147 0.00070104647 0.00072553407 
 7936000    407.34637   -122.75469    1931.2802    986.03878    3014.7401   -1503.9175 0.00068441894 0.00070094319 0.00072542146 
 7938000    384.33602   -122.80242    -4090.799   -1062.9645   -3156.4578   -1897.6983 0.00068431766 0.00070087987 0.00072526913 
 7940000    430.50785   -122.36467   -39.946383    2071.6412   -291.06599    6299.1566 0.00068422592 0.0007009198 0.00072506593 
 7942000    431.70944   -122.46666   -1564.7893    1061.2742   -2605.0153    5643.6001 0.00068412947 0.00070076066 0.0007249388 
 7944000    418.93468   -122.44643    -2224.922   -378.21708    1620.6424    -7460.417 0.0006840824 0.00070059673 0.00072487913 
 7946000    385.21787   -122.71247    1668.4391    602.51924     867.8203      3367.23 0.00068397055 0.00070044484 0.00072480114 
 7948000     360.2561   -123.52603   -3091.6591    749.96771   -2334.9079    -2213.605 0.00068383276 0.00070026968 0.00072500036 
 7950000    349.09529   -122.41629    1923.4535    -452.1117    873.03304   -1343.7031 0.00068371709 0.00070027143 0.00072488516 
 7952000     407.6598   -122.22866   -1887.9618    185.83267     3797.595   -1882.9103 0.0006838141 0.00070027564 0.0007249249 
 7954000    396.27115   -123.38549   -2382.3377    1759.0613   -17.754553    2676.3226 0.0006835036 0.00070007856 0.00072509121 
 7956000    365.69842   -122.79874   -113.52294    6860.2893    4544.2522   -519.28567 0.00068344396 0.00069997319 0.00072549071 
 7958000    380.81929   -121.78205   -5658.3988    769.03981   -3174.7906    3622.4921 0.00068319979 0.00069975421  0.000725353 
 7960000    366.26281   -122.58661   -664.95113    2159.3749   -4761.8052   -3320.3444 0.00068322805 0.00069966497 0.00072550331 
 7962000    465.86057   -122.06157    -1459.017   -3180.4943    1399.1765    6644.4656 0.00068311947 0.00069947788 0.0007252308 
 7964000    376.31777   -122.55729   -447.54814   -117.32758   -2899.3529    1436.3074 0.00068312967 0.00069945291 0.00072500903 
 7966000    377.77314   -122.40702    3060.1222    1206.1445    4589.5009    4341.6965 0.00068361475 0.0006995866 0.00072509116 
 7968000    454.38426   -121.99136     -723.672   -942.88147    981.81374   -2769.6918 0.00068369533 0.00069953927 0.00072523618 
 7970000    382.43775   -122.24513    1498.2627   -1987.0726   -1051.2332     1734.794 0.00068478808 0.0006994002 0.00072526751 
 7972000    424.87011   -122.37537   -2842.8286    5728.0988   -2398.1523    901.34936 0.0006846059 0.00069928905 0.00072541663 
 7974000    383.83395   -122.23944   -2360.9263   -4242.8213   -4471.1134   -2462.2595 0.00068431157 0.00069914424 0.00072541225 
 7976000     419.2499   -121.53427    -1996.543    2181.7403     3870.109   -1393.9352 0.00068411217 0.00069899532 0.0007252831 
 7978000    402.55906   -122.34198   -3382.9129   -3020.4136    2210.6736   -4167.9614 0.00068392637 0.00069912215 0.00072532937 
 7980000    444.56138   -122.83835    -798.6014     2315.364   -3991.5113   -3196.6998 0.00068416944 0.00069910446 0.00072546192 
 7982000    424.48263    -121.2276   -331.86943   -1776.0043    3273.2092    1092.2295 0.00068433237 0.00069915596 0.00072594038 
 7984000    370.90211   -121.69136    1214.4495   -2648.3277   -4259.4235   -922.02117 0.00068462434 0.00069925282 0.00072574964 
 7986000    367.69243    -122.0947    -263.8614    1661.9558    6629.8247    2195.1401 0.00068450646 0.00069913263 0.00072564695 
 7988000     404.2386   -123.28003   -1746.6717   -6108.2876   -763.25915   -1628.7015 0.00068445911 0.00069894834 0.00072593592 
 7990000    375.82524   -121.22038   -3.3999116    11267.037    230.42163    1604.7391 0.00068446501 0.00069876858 0.00072573781 
 7992000    389.67224   -121.73552   -1294.5132   -4433.4773   -3015.8669   -3692.7813 0.00068466072 0.00069902038 0.00072590428 
 7994000    454.56941   -121.48671    689.01897    5650.3853    429.48183    3783.2746 0.00068478156 0.00069882979 0.00072575591 
 7996000    434.70848   -120.98409   -830.28782    2785.5036   -3219.2049    90.688399 0.00068498596 0.00069875349 0.0007256205 
 7998000    378.84712   -122.14073   -104.67017   -3305.5882    1958.4192   -2247.2613 0.00068491365 0.00069875359 0.00072567291 
 8000000    391.68402    -122.0545   -2426.2141    2071.8172   -2601.5656    85.898646 0.0006846932 0.00069914026 0.00072546636 
Loop time of 7627.68 on 1 procs for 8000000 steps with 160 atoms

Performance: 90.617 ns/day, 0.265 hours/ns, 1048.812 timesteps/s
98.1% CPU use with 1 MPI tasks x no OpenMP threads

MPI task timing breakdown:
Section |  min time  |  avg time  |  max time  |%varavg| %total
---------------------------------------------------------------
Pair    | 6249.1     | 6249.1     | 6249.1     |   0.0 | 81.93
Bond    | 48.668     | 48.668     | 48.668     |   0.0 |  0.64
Kspace  | 977.28     | 977.28     | 977.28     |   0.0 | 12.81
Neigh   | 119.27     | 119.27     | 119.27     |   0.0 |  1.56
Comm    | 131.29     | 131.29     | 131.29     |   0.0 |  1.72
Output  | 11.751     | 11.751     | 11.751     |   0.0 |  0.15
Modify  | 60.069     | 60.069     | 60.069     |   0.0 |  0.79
Other   |            | 30.29      |            |       |  0.40

Nlocal:    160 ave 160 max 160 min
Histogram: 1 0 0 0 0 0 0 0 0 0
Nghost:    3084 ave 3084 max 3084 min
Histogram: 1 0 0 0 0 0 0 0 0 0
Neighs:    35459 ave 35459 max 35459 min
Histogram: 1 0 0 0 0 0 0 0 0 0

Total # of neighbors = 35459
Ave neighs/atom = 221.619
Ave special neighs/atom = 1.5
Neighbor list builds = 100104
Dangerous builds = 0
variable     ndens equal count(all)/vol
print        "average viscosity: $v [Pa.s] @ $T K, ${ndens} /A^3"
average viscosity: 0.000703099938783521 [Pa.s] @ 400 K, 0.0132485764803493 /A^3
Total wall time: 2:11:51
