ITEM: TIMESTEP
0
ITEM: NUMBER OF ATOMS
160
ITEM: BOX BOUNDS pp pp pp
-4.0000000000000000e+01 4.0000000000000000e+01
-4.0000000000000000e+01 4.0000000000000000e+01
-4.0000000000000000e+01 4.0000000000000000e+01
ITEM: ATOMS id mass type x y z 
98 67 2 -39.7606 -32.9289 -38.5958 
99 15 3 -38.5677 -30.9368 -39.9535 
100 29 4 39.2864 -33.8146 -35.8472 
39 86.8 1 -16.156 -13.3535 -32.9216 
80 67 2 18.0709 -15.2414 -33.552 
81 15 3 18.8192 -17.5833 -32.461 
82 29 4 15.7137 -13.6906 -34.6859 
50 67 2 27.8684 -15.3072 -37.487 
51 15 3 27.0469 -13.204 -38.9485 
132 15 3 29.8991 -13.6806 -30.3279 
52 29 4 30.2465 -16.5196 -36.0303 
15 86.8 1 -10.805 -0.25449 -37.2088 
23 86.8 1 10.6912 6.56633 -39.6724 
60 15 3 -28.8016 18.875 -38.7411 
59 67 2 -31.0293 20.1598 -39.5295 
56 67 2 -28.4115 27.7147 -35.2537 
57 15 3 -27.6224 25.1594 -34.9669 
58 29 4 -28.6973 29.9993 -37.2402 
17 86.8 1 -5.49156 23.3027 -31.7598 
78 15 3 1.8091 22.1818 -39.0194 
26 86.8 1 -11.4076 33.0511 -30.9969 
4 86.8 1 -0.921555 31.4227 -38.5649 
34 86.8 1 10.3028 38.9862 -39.2581 
142 29 4 -32.2577 -39.7795 -20.6511 
9 86.8 1 29.0907 -33.235 -21.3637 
121 29 4 20.692 -32.2635 -20.7459 
119 67 2 19.5337 -29.4986 -21.2571 
120 15 3 20.001 -27.119 -22.4205 
20 86.8 1 28.7539 -12.8915 -27.5041 
131 67 2 27.232 -13.6428 -29.9816 
133 29 4 24.9466 -14.7501 -28.3089 
37 86.8 1 -26.977 37.0688 -25.3265 
27 86.8 1 -5.67109 -34.0726 -17.9854 
53 67 2 9.09742 -33.817 -10.2096 
55 29 4 6.61679 -34.2993 -11.9011 
36 86.8 1 -38.6043 -22.1061 -16.6375 
6 86.8 1 23.8607 -12.786 -14.7544 
31 86.8 1 -1.50903 -2.29971 -11.1654 
70 29 4 -4.69551 -0.787675 -18.2909 
68 67 2 -5.37584 1.57929 -16.5072 
69 15 3 -4.33667 3.64642 -15.1353 
3 86.8 1 -36.8171 14.2976 -19.4253 
104 67 2 -29.2217 14.6175 -10.0595 
105 15 3 -28.3787 13.5974 -12.4012 
140 67 2 -32.4112 37.8297 -18.7782 
141 15 3 -31.2414 36.6273 -16.6757 
149 67 2 -17.6286 35.2958 -14.2897 
150 15 3 -15.4892 36.9236 -14.2019 
151 29 4 -18.5117 32.3916 -14.4727 
115 29 4 18.4168 30.4831 -18.6517 
113 67 2 20.387 32.4428 -19.8866 
114 15 3 22.8335 33.5304 -19.6286 
54 15 3 11.5826 -34.6999 -9.68115 
145 29 4 -0.0290965 -28.3139 -2.0809 
143 67 2 0.715832 -25.3828 -1.76334 
144 15 3 2.43594 -23.4715 -2.55266 
122 67 2 38.6261 -22.7151 -5.47473 
123 15 3 39.652 -21.8436 -7.80341 
124 29 4 37.3554 -25.099 -4.07835 
125 67 2 -36.8296 -17.9695 -4.78929 
126 15 3 -35.1415 -16.0263 -5.56971 
127 29 4 -38.5432 -18.9685 -2.48434 
44 67 2 2.73372 -12.2714 -3.20626 
45 15 3 5.07382 -12.3746 -4.5284 
46 29 4 0.486709 -13.9528 -2.03528 
91 29 4 1.81825 -11.2423 -4.2634 
71 67 2 16.1497 -11.0825 -4.00909 
72 15 3 18.8343 -11.2316 -3.93576 
73 29 4 13.5794 -12.6292 -3.51032 
90 15 3 -1.37928 -7.40213 -6.44892 
89 67 2 0.730328 -9.01645 -6.02669 
116 67 2 -30.0062 8.29125 -4.63363 
118 29 4 -30.3442 5.44833 -5.65875 
18 86.8 1 -27.1548 9.41929 -9.98672 
117 15 3 -29.5393 9.77844 -2.44159 
7 86.8 1 22.1578 5.48786 -5.50354 
106 29 4 -30.6603 13.9657 -7.46092 
148 29 4 3.90088 11.1397 -1.50406 
108 15 3 -29.1279 22.6288 -0.531135 
2 86.8 1 7.29414 32.6479 -7.57523 
14 86.8 1 4.3055 -37.4315 9.39068 
32 86.8 1 22.9409 -32.624 9.22324 
38 86.8 1 16.9722 -28.6115 7.058 
1 86.8 1 -39.161 -19.1491 0.890539 
137 67 2 -13.9535 -12.2349 3.56335 
138 15 3 -12.8665 -10.3492 5.14355 
139 29 4 -14.1223 -15.2281 3.05391 
28 86.8 1 39.1683 -18.9824 2.40829 
10 86.8 1 -19.8872 -4.86895 7.63172 
16 86.8 1 -8.07335 -8.75822 0.604183 
29 86.8 1 -3.90748 7.0544 3.26793 
109 29 4 -33.1542 19.9149 1.95308 
146 67 2 1.9445 10.9902 0.819203 
147 15 3 1.48216 11.8133 3.33782 
107 67 2 -31.5893 21.9295 0.297933 
74 67 2 -16.0867 -30.8016 16.399 
76 29 4 -16.4474 -33.6371 17.4368 
101 67 2 -6.8918 -31.2178 15.883 
103 29 4 -6.23186 -34.1709 16.1843 
75 15 3 -14.4377 -28.6766 16.3867 
86 67 2 -4.41535 -25.7301 10.722 
87 15 3 -6.19312 -23.7315 10.4389 
88 29 4 -1.77661 -26.5191 12.0111 
102 15 3 -8.11597 -29.1262 17.0498 
30 86.8 1 -35.8338 -18.1154 14.9413 
5 86.8 1 -0.514897 -13.8698 11.0873 
11 86.8 1 26.393 -12.3701 14.9609 
92 67 2 -17.765 7.00213 12.3528 
93 15 3 -15.2213 7.6051 11.7198 
94 29 4 -19.5763 4.84404 13.4971 
155 67 2 -18.2647 6.44077 12.9538 
156 15 3 -19.4098 4.25586 11.8816 
157 29 4 -17.1443 9.19729 12.3263 
128 67 2 -32.7653 18.4811 15.581 
129 15 3 -35.3887 18.3981 16.1687 
66 15 3 -20.9616 11.0674 10.8534 
130 29 4 -29.9733 18.0151 16.6921 
65 67 2 -19.2047 11.3133 12.8751 
67 29 4 -17.1077 13.1354 14.112 
21 86.8 1 -21.1885 -35.1457 26.4985 
160 29 4 30.9204 -37.9912 28.7973 
8 86.8 1 -17.9652 -21.7039 22.7922 
62 67 2 -1.18749 -27.4951 29.6473 
63 15 3 -3.64463 -27.1462 28.6103 
134 67 2 9.77863 -26.6274 26.0619 
136 29 4 9.64481 -28.9427 24.0951 
135 15 3 11.0162 -25.7057 28.265 
110 67 2 35.6574 -27.8252 24.9217 
111 15 3 33.7768 -28.1313 23.0231 
112 29 4 36.5453 -26.0906 27.2561 
12 86.8 1 8.19587 -12.022 26.709 
42 15 3 -37.703 -3.17059 29.031 
152 67 2 19.1917 -0.0486527 22.6633 
153 15 3 19.3608 -2.72683 22.4801 
25 86.8 1 -16.831 1.22978 28.9206 
83 67 2 10.5597 9.819 24.814 
85 29 4 10.8643 6.9113 23.9775 
154 29 4 20.5515 2.56527 21.9111 
40 86.8 1 -33.0376 16.9085 21.8025 
84 15 3 11.8496 11.9336 25.8624 
24 86.8 1 25.9009 35.8006 20.0383 
158 67 2 31.8098 39.2725 27.813 
159 15 3 33.8224 37.4885 27.8526 
19 86.8 1 -6.79422 -30.4281 34.6635 
22 86.8 1 0.331293 -31.9656 34.3006 
64 29 4 0.514636 -29.3041 31.4017 
41 67 2 -38.1057 -3.11269 31.6898 
43 29 4 -39.7866 -4.24956 33.9546 
95 67 2 -1.49194 -2.96999 30.3131 
96 15 3 -3.43845 -1.12111 30.1472 
97 29 4 -0.739257 -5.65651 31.5228 
33 86.8 1 -24.9414 9.94055 30.8116 
13 86.8 1 18.8545 7.20409 39.2077 
61 29 4 -33.8408 19.7765 39.377 
77 67 2 2.68142 23.1159 38.6138 
79 29 4 4.49549 22.5237 36.2462 
47 67 2 -14.0457 34.5657 35.9556 
48 15 3 -14.3124 35.0711 33.3272 
49 29 4 -14.9319 35.4259 38.7344 
35 86.8 1 29.1662 36.7299 38.7815 
ITEM: TIMESTEP
43
ITEM: NUMBER OF ATOMS
160
ITEM: BOX BOUNDS pp pp pp
-4.0000000000000000e+01 4.0000000000000000e+01
-4.0000000000000000e+01 4.0000000000000000e+01
-4.0000000000000000e+01 4.0000000000000000e+01
ITEM: ATOMS id mass type x y z 
98 67 2 -39.7596 -32.928 -38.5985 
99 15 3 -38.5667 -30.9355 -39.9554 
100 29 4 39.2844 -33.8169 -35.8426 
39 86.8 1 -16.156 -13.3535 -32.9216 
80 67 2 18.0732 -15.2429 -33.5509 
81 15 3 18.8207 -17.585 -32.4599 
82 29 4 15.71 -13.6872 -34.6881 
50 67 2 27.8661 -15.306 -37.4884 
51 15 3 27.0454 -13.2024 -38.9499 
132 15 3 29.9027 -13.6791 -30.3233 
52 29 4 30.2503 -16.5223 -36.0274 
15 86.8 1 -10.805 -0.25449 -37.2088 
23 86.8 1 10.6912 6.56633 -39.6724 
60 15 3 -28.7993 18.8747 -38.7402 
59 67 2 -31.0265 20.1601 -39.5284 
56 67 2 -28.4112 27.7124 -35.2517 
57 15 3 -27.6219 25.1571 -34.9659 
58 29 4 -28.698 30.0038 -37.2432 
17 86.8 1 -5.49156 23.3027 -31.7598 
78 15 3 1.80784 22.1817 -39.0173 
26 86.8 1 -11.4076 33.051 -30.9969 
4 86.8 1 -0.921554 31.4227 -38.5649 
34 86.8 1 10.3028 38.9862 -39.2581 
142 29 4 -32.2581 -39.7755 -20.6548 
9 86.8 1 29.0907 -33.235 -21.3637 
121 29 4 20.6934 -32.2686 -20.7446 
119 67 2 19.5326 -29.4959 -21.2576 
120 15 3 20.0007 -27.1166 -22.4213 
20 86.8 1 28.7512 -12.8955 -27.517 
131 67 2 27.2357 -13.6382 -29.9772 
133 29 4 24.9419 -14.7522 -28.3051 
37 86.8 1 -26.977 37.0688 -25.3265 
27 86.8 1 -5.67109 -34.0726 -17.9854 
53 67 2 9.09988 -33.8166 -10.2079 
55 29 4 6.61202 -34.2995 -11.9038 
36 86.8 1 -38.6043 -22.1061 -16.6375 
6 86.8 1 23.8607 -12.786 -14.7544 
31 86.8 1 -1.50904 -2.29971 -11.1654 
70 29 4 -4.69503 -0.792078 -18.2942 
68 67 2 -5.37645 1.58163 -16.5054 
69 15 3 -4.33653 3.64846 -15.1339 
3 86.8 1 -36.8171 14.2976 -19.4253 
104 67 2 -29.2203 14.618 -10.0621 
105 15 3 -28.3776 13.597 -12.4034 
140 67 2 -32.4113 37.8273 -18.7763 
141 15 3 -31.2409 36.6256 -16.6739 
149 67 2 -17.6277 35.2986 -14.2895 
150 15 3 -15.4878 36.9257 -14.2018 
151 29 4 -18.514 32.3867 -14.473 
115 29 4 18.4127 30.4798 -18.65 
113 67 2 20.389 32.4447 -19.8878 
114 15 3 22.8355 33.5318 -19.6291 
54 15 3 11.5849 -34.7001 -9.6801 
145 29 4 -0.0309912 -28.3191 -2.08098 
143 67 2 0.716605 -25.3799 -1.76306 
144 15 3 2.43706 -23.4693 -2.55285 
122 67 2 38.6274 -22.7128 -5.47608 
123 15 3 39.6531 -21.842 -7.80504 
124 29 4 37.3531 -25.1028 -4.0752 
125 67 2 -36.8285 -17.9686 -4.79044 
126 15 3 -35.1404 -16.0256 -5.57091 
127 29 4 -38.5462 -18.9706 -2.47872 
44 67 2 2.49991 -12.1815 -3.58265 
45 15 3 5.01655 -12.1979 -4.52936 
46 29 4 0.432695 -13.8003 -2.03364 
91 29 4 1.94605 -11.3519 -4.0955 
71 67 2 16.1522 -11.081 -4.00957 
72 15 3 18.8367 -11.231 -3.93596 
73 29 4 13.5744 -12.6313 -3.50964 
90 15 3 -1.26729 -7.55417 -6.35031 
89 67 2 0.835635 -9.17393 -5.9175 
116 67 2 -30.0058 8.29406 -4.63262 
118 29 4 -30.3449 5.44355 -5.66131 
18 86.8 1 -27.155 9.41961 -9.98674 
117 15 3 -29.539 9.78051 -2.44017 
7 86.8 1 22.1578 5.48786 -5.50354 
106 29 4 -30.6627 13.9652 -7.45601 
148 29 4 3.90391 11.1395 -1.50861 
108 15 3 -29.126 22.6301 -0.532299 
2 86.8 1 7.29414 32.6479 -7.57523 
14 86.8 1 4.3055 -37.4315 9.39068 
32 86.8 1 22.9409 -32.6239 9.22324 
38 86.8 1 16.9722 -28.6115 7.05801 
1 86.8 1 -39.2131 -19.1437 0.935128 
137 67 2 -13.9533 -12.2319 3.56389 
138 15 3 -12.8659 -10.3469 5.14449 
139 29 4 -14.1231 -15.2333 3.05242 
28 86.8 1 39.221 -18.9877 2.36026 
10 86.8 1 -19.8872 -4.86895 7.63172 
16 86.8 1 -8.07338 -8.75824 0.604206 
29 86.8 1 -3.90745 7.05442 3.26793 
109 29 4 -33.1576 19.9117 1.95586 
146 67 2 1.9426 10.9901 0.82152 
147 15 3 1.481 11.8136 3.34006 
107 67 2 -31.5877 21.9315 0.296314 
74 67 2 -16.0862 -30.7988 16.398 
76 29 4 -16.4487 -33.6422 17.4383 
101 67 2 -6.89248 -31.2148 15.8827 
103 29 4 -6.23033 -34.1761 16.1842 
75 15 3 -14.4367 -28.6743 16.3862 
86 67 2 -4.41795 -25.7293 10.7208 
87 15 3 -6.19518 -23.7303 10.4381 
88 29 4 -1.77197 -26.5212 12.0131 
102 15 3 -8.11687 -29.1238 17.0502 
30 86.8 1 -35.8338 -18.1154 14.9413 
5 86.8 1 -0.514898 -13.8698 11.0873 
11 86.8 1 26.393 -12.3701 14.9609 
92 67 2 -17.7091 7.05603 12.3479 
93 15 3 -15.1792 7.69116 11.691 
94 29 4 -19.5558 4.76463 13.1444 
155 67 2 -18.292 6.44426 13.0908 
156 15 3 -19.5208 4.24459 12.1508 
157 29 4 -17.131 9.15236 12.3081 
128 67 2 -32.7681 18.4816 15.58 
129 15 3 -35.3912 18.3983 16.1685 
66 15 3 -20.963 11.0647 10.8529 
130 29 4 -29.968 18.0145 16.6935 
65 67 2 -19.2011 11.3068 12.8706 
67 29 4 -17.1034 13.1368 14.1154 
21 86.8 1 -21.1885 -35.1457 26.4985 
160 29 4 30.9181 -37.9864 28.7987 
8 86.8 1 -17.9652 -21.7039 22.7922 
62 67 2 -1.18911 -27.4938 29.6459 
63 15 3 -3.64632 -27.1452 28.6091 
134 67 2 9.77879 -26.6251 26.0639 
136 29 4 9.64403 -28.9465 24.0912 
135 15 3 11.0168 -25.7041 28.267 
110 67 2 35.6565 -27.8269 24.9194 
111 15 3 33.7755 -28.1322 23.0211 
112 29 4 36.5475 -26.0879 27.2604 
12 86.8 1 8.19587 -12.022 26.709 
42 15 3 -37.702 -3.17007 29.0287 
152 67 2 19.1904 -0.0512528 22.664 
153 15 3 19.3602 -2.72927 22.4804 
25 86.8 1 -16.831 1.22978 28.9206 
83 67 2 10.5594 9.82187 24.8148 
85 29 4 10.8641 6.9061 23.9758 
154 29 4 20.5533 2.57032 21.9101 
40 86.8 1 -33.0376 16.9086 21.8023 
84 15 3 11.85 11.936 25.8633 
24 86.8 1 25.9009 35.8006 20.0383 
158 67 2 31.8108 39.2699 27.8121 
159 15 3 33.8237 37.4864 27.8522 
19 86.8 1 -6.79418 -30.4281 34.6634 
22 86.8 1 0.331327 -31.9647 34.2996 
64 29 4 0.517882 -29.3074 31.4053 
41 67 2 -38.1041 -3.1116 31.6875 
43 29 4 -39.7892 -4.25117 33.9591 
95 67 2 -1.49273 -2.96734 30.312 
96 15 3 -3.43967 -1.119 30.1465 
97 29 4 -0.737241 -5.66126 31.5246 
33 86.8 1 -24.9414 9.94055 30.8116 
13 86.8 1 18.8545 7.20409 39.2077 
61 29 4 -33.8459 19.7765 39.3751 
77 67 2 2.67964 23.1164 38.6162 
79 29 4 4.49852 22.5233 36.2416 
47 67 2 -14.0449 34.5649 35.9528 
48 15 3 -14.3121 35.0709 33.3247 
49 29 4 -14.933 35.4269 38.7397 
35 86.8 1 29.1662 36.7299 38.7815 
ITEM: TIMESTEP
2000
ITEM: NUMBER OF ATOMS
160
ITEM: BOX BOUNDS pp pp pp
-4.0000000000000000e+01 4.0000000000000000e+01
-4.0000000000000000e+01 4.0000000000000000e+01
-4.0000000000000000e+01 4.0000000000000000e+01
ITEM: ATOMS id mass type x y z 
98 67 2 -39.7464 -32.8261 -38.5865 
99 15 3 -38.5711 -30.8118 -39.9099 
100 29 4 39.2389 -33.7526 -35.8595 
39 86.8 1 -16.1648 -13.3665 -32.8759 
80 67 2 18.0469 -15.2491 -33.5874 
81 15 3 18.8234 -17.5751 -32.4878 
82 29 4 15.6797 -13.7188 -34.7176 
50 67 2 27.917 -15.2906 -37.5336 
51 15 3 27.091 -13.1597 -38.9388 
132 15 3 29.8852 -13.7091 -30.3845 
52 29 4 30.2922 -16.508 -36.054 
15 86.8 1 -10.8543 -0.215376 -37.2032 
23 86.8 1 10.6576 6.54635 -39.637 
60 15 3 -28.8416 18.8644 -38.6733 
59 67 2 -31.0636 20.1517 -39.4975 
56 67 2 -28.4065 27.7399 -35.2759 
57 15 3 -27.581 25.2062 -35.0287 
17 86.8 1 -5.47844 23.3268 -31.7987 
78 15 3 1.67499 22.1514 -39.0843 
58 29 4 -28.7283 30.0625 -37.234 
26 86.8 1 -11.4042 33.0672 -30.9998 
4 86.8 1 -1.01843 31.3853 -38.5191 
34 86.8 1 10.2803 39.0339 -39.242 
142 29 4 -32.1921 -39.7655 -20.6418 
9 86.8 1 29.1188 -33.2017 -21.3765 
121 29 4 20.6232 -32.3157 -20.7878 
119 67 2 19.5958 -29.4819 -21.2346 
120 15 3 20.173 -27.0889 -22.3397 
20 86.8 1 28.7583 -12.9128 -27.5555 
131 67 2 27.225 -13.6084 -29.9487 
133 29 4 24.9568 -14.7469 -28.2583 
37 86.8 1 -26.9642 37.0439 -25.329 
27 86.8 1 -5.64968 -34.0513 -17.9938 
53 67 2 9.06394 -33.8867 -10.1754 
55 29 4 6.5722 -34.2972 -11.8954 
36 86.8 1 -38.639 -22.0945 -16.6012 
6 86.8 1 23.8495 -12.7653 -14.7795 
31 86.8 1 -1.52757 -2.29782 -11.2281 
70 29 4 -4.70805 -0.745275 -18.3562 
68 67 2 -5.36223 1.58292 -16.506 
69 15 3 -4.31833 3.65931 -15.1581 
3 86.8 1 -36.8097 14.2946 -19.4641 
104 67 2 -29.2104 14.6085 -10.092 
105 15 3 -28.3445 13.6071 -12.4219 
140 67 2 -32.4811 37.8233 -18.7978 
141 15 3 -31.3321 36.4824 -16.7531 
149 67 2 -17.5783 35.2915 -14.2455 
150 15 3 -15.4033 36.8867 -14.1683 
151 29 4 -18.5366 32.4046 -14.414 
115 29 4 18.4608 30.4362 -18.6107 
113 67 2 20.3552 32.4308 -19.914 
114 15 3 22.8517 33.4493 -19.8141 
54 15 3 11.5846 -34.7259 -9.76806 
145 29 4 -0.00679695 -28.2835 -2.13343 
143 67 2 0.70072 -25.3424 -1.77828 
144 15 3 2.37185 -23.3797 -2.55027 
122 67 2 38.5993 -22.694 -5.41453 
123 15 3 39.5706 -21.7933 -7.74806 
124 29 4 37.4032 -25.1147 -3.98445 
125 67 2 -36.7988 -17.9271 -4.81993 
126 15 3 -35.1241 -15.981 -5.61751 
127 29 4 -38.4117 -18.9721 -2.4539 
44 67 2 2.51293 -12.2153 -3.50638 
45 15 3 5.00046 -12.1831 -4.52139 
46 29 4 0.456019 -13.9313 -2.03468 
91 29 4 2.01671 -11.4269 -4.11549 
71 67 2 16.1447 -11.0781 -4.00496 
72 15 3 18.822 -11.151 -3.80192 
73 29 4 13.5851 -12.6757 -3.51603 
90 15 3 -1.24816 -7.63893 -6.29362 
89 67 2 0.904059 -9.19115 -5.86092 
116 67 2 -29.9809 8.23323 -4.64968 
118 29 4 -30.3121 5.37879 -5.64496 
18 86.8 1 -27.1469 9.44559 -10.0036 
117 15 3 -29.4975 9.75698 -2.47772 
7 86.8 1 22.1804 5.49515 -5.51656 
106 29 4 -30.7078 13.9916 -7.51012 
148 29 4 3.9518 11.202 -1.46067 
108 15 3 -29.1087 22.5558 -0.648103 
2 86.8 1 7.25752 32.6468 -7.60616 
14 86.8 1 4.28401 -37.4955 9.43004 
32 86.8 1 22.928 -32.6234 9.24699 
38 86.8 1 16.9673 -28.5989 7.01609 
1 86.8 1 -39.1938 -19.1287 1.00774 
137 67 2 -14.0027 -12.2202 3.53675 
138 15 3 -12.836 -10.3271 5.04237 
139 29 4 -14.1841 -15.2202 3.04314 
28 86.8 1 39.2525 -19.0088 2.35419 
10 86.8 1 -19.9513 -4.8971 7.67896 
16 86.8 1 -8.09654 -8.75462 0.608056 
29 86.8 1 -3.875 7.04983 3.23142 
109 29 4 -33.1528 19.9593 1.94876 
146 67 2 1.93953 10.9422 0.816976 
147 15 3 1.32836 11.805 3.30427 
107 67 2 -31.5727 21.9389 0.249107 
74 67 2 -16.0449 -30.7799 16.3471 
76 29 4 -16.4206 -33.6273 17.3734 
101 67 2 -6.8877 -31.2131 15.8696 
103 29 4 -6.19232 -34.1783 16.16 
75 15 3 -14.3606 -28.6963 16.3304 
86 67 2 -4.44213 -25.7121 10.7681 
87 15 3 -6.09463 -23.6272 10.374 
88 29 4 -1.84364 -26.6018 12.0819 
102 15 3 -7.98027 -29.0792 17.0882 
30 86.8 1 -35.8151 -18.1413 14.9864 
5 86.8 1 -0.504047 -13.8546 11.1058 
11 86.8 1 26.3978 -12.3589 14.9703 
92 67 2 -17.6805 6.98699 12.2936 
93 15 3 -15.1358 7.63098 11.7317 
94 29 4 -19.5317 4.71371 13.0937 
155 67 2 -18.3157 6.48052 13.0141 
156 15 3 -19.4567 4.23562 12.0614 
157 29 4 -17.1199 9.16764 12.2254 
128 67 2 -32.7961 18.4742 15.542 
129 15 3 -35.4072 18.471 16.1527 
66 15 3 -20.9293 11.1416 10.8467 
130 29 4 -30.0072 17.9389 16.6394 
65 67 2 -19.1389 11.3313 12.844 
67 29 4 -16.9786 13.0963 14.0733 
21 86.8 1 -21.1305 -35.1237 26.5279 
160 29 4 30.9233 -38.0503 28.8944 
8 86.8 1 -18.0217 -21.7069 22.7991 
62 67 2 -1.20407 -27.5269 29.6187 
63 15 3 -3.67796 -27.2175 28.6218 
134 67 2 9.73371 -26.637 26.101 
136 29 4 9.62266 -28.9381 24.1116 
135 15 3 11.1187 -25.615 28.1705 
110 67 2 35.5994 -27.838 24.907 
111 15 3 33.7623 -28.0531 22.9474 
112 29 4 36.5454 -26.1139 27.2413 
12 86.8 1 8.19142 -12.0152 26.7053 
42 15 3 -37.6427 -3.13145 29.0626 
152 67 2 19.1635 -0.0325308 22.6415 
153 15 3 19.428 -2.70405 22.4811 
25 86.8 1 -16.7673 1.2512 28.9504 
83 67 2 10.554 9.75621 24.835 
85 29 4 10.8406 6.83578 24.0149 
154 29 4 20.4796 2.61182 21.9064 
40 86.8 1 -33.0248 16.9577 21.8168 
84 15 3 11.8192 11.8474 25.9423 
24 86.8 1 25.8919 35.8226 20.0344 
158 67 2 31.7973 39.2459 27.8104 
159 15 3 33.7442 37.382 27.9019 
19 86.8 1 -6.80496 -30.4239 34.6805 
22 86.8 1 0.350588 -31.9896 34.3514 
64 29 4 0.527357 -29.306 31.3798 
41 67 2 -38.0919 -3.0631 31.7185 
43 29 4 -39.8102 -4.21375 33.9526 
95 67 2 -1.49118 -3.01394 30.3222 
96 15 3 -3.38987 -1.11283 30.2903 
97 29 4 -0.719532 -5.70607 31.515 
33 86.8 1 -24.9501 9.94363 30.8082 
13 86.8 1 18.8702 7.22581 39.2735 
61 29 4 -33.8318 19.7809 39.2551 
77 67 2 2.64219 23.1664 38.626 
79 29 4 4.43276 22.5658 36.2095 
47 67 2 -14.0186 34.4965 35.9381 
48 15 3 -14.2209 35.01 33.3079 
49 29 4 -14.9332 35.3386 38.7195 
35 86.8 1 29.1754 36.7481 38.7983 
ITEM: TIMESTEP
4000
ITEM: NUMBER OF ATOMS
160
ITEM: BOX BOUNDS pp pp pp
-4.0000000000000000e+01 4.0000000000000000e+01
-4.0000000000000000e+01 4.0000000000000000e+01
-4.0000000000000000e+01 4.0000000000000000e+01
ITEM: ATOMS id mass type x y z 
98 67 2 -39.7345 -32.7246 -38.5733 
99 15 3 -38.5734 -30.68 -39.8612 
100 29 4 39.1947 -33.6837 -35.8802 
39 86.8 1 -16.1738 -13.3798 -32.8292 
80 67 2 18.0305 -15.257 -33.6218 
81 15 3 18.8252 -17.5812 -32.51 
82 29 4 15.625 -13.7388 -34.7578 
50 67 2 27.9705 -15.2752 -37.579 
51 15 3 27.1343 -13.1139 -38.93 
132 15 3 29.8548 -13.7352 -30.4479 
52 29 4 30.3333 -16.4938 -36.0816 
15 86.8 1 -10.9047 -0.175402 -37.1974 
23 86.8 1 10.6232 6.52594 -39.6007 
60 15 3 -28.902 18.8638 -38.6106 
59 67 2 -31.1093 20.1394 -39.4701 
56 67 2 -28.4025 27.7714 -35.3018 
57 15 3 -27.5367 25.2489 -35.0928 
17 86.8 1 -5.46502 23.3515 -31.8384 
78 15 3 1.53938 22.1407 -39.1673 
58 29 4 -28.7587 30.1187 -37.2217 
26 86.8 1 -11.4007 33.0838 -31.0026 
4 86.8 1 -1.11743 31.3471 -38.4723 
34 86.8 1 10.2573 39.0826 -39.2256 
142 29 4 -32.1283 -39.7654 -20.6227 
9 86.8 1 29.1477 -33.1676 -21.3896 
121 29 4 20.5511 -32.3567 -20.8343 
119 67 2 19.6599 -29.4673 -21.2111 
120 15 3 20.3512 -27.0752 -22.252 
20 86.8 1 28.7653 -12.9307 -27.5956 
131 67 2 27.2162 -13.5801 -29.9165 
133 29 4 24.9742 -14.738 -28.2149 
37 86.8 1 -26.951 37.0185 -25.3316 
27 86.8 1 -5.6278 -34.0295 -18.0024 
53 67 2 9.02518 -33.9638 -10.1487 
55 29 4 6.54004 -34.2884 -11.8762 
36 86.8 1 -38.6745 -22.0827 -16.564 
6 86.8 1 23.8381 -12.7442 -14.8051 
31 86.8 1 -1.5465 -2.29589 -11.2921 
70 29 4 -4.71887 -0.705141 -18.4258 
68 67 2 -5.34963 1.58622 -16.5048 
69 15 3 -4.29588 3.67639 -15.1789 
3 86.8 1 -36.8021 14.2914 -19.5037 
104 67 2 -29.1975 14.6068 -10.1236 
105 15 3 -28.312 13.5983 -12.4482 
140 67 2 -32.5477 37.8221 -18.8184 
141 15 3 -31.4391 36.3424 -16.851 
149 67 2 -17.529 35.2875 -14.2002 
150 15 3 -15.3181 36.8358 -14.1349 
151 29 4 -18.5566 32.421 -14.3539 
115 29 4 18.5046 30.391 -18.5733 
113 67 2 20.3266 32.4168 -19.9371 
114 15 3 22.8528 33.3657 -20.0139 
54 15 3 11.5768 -34.7403 -9.84969 
145 29 4 0.0189922 -28.2543 -2.19007 
143 67 2 0.683045 -25.3 -1.79145 
144 15 3 2.30957 -23.292 -2.55238 
122 67 2 38.5691 -22.6763 -5.34796 
123 15 3 39.4847 -21.7499 -7.69168 
124 29 4 37.4588 -25.1202 -3.89918 
125 67 2 -36.7687 -17.8836 -4.8476 
126 15 3 -35.106 -15.9373 -5.67091 
127 29 4 -38.2744 -18.9754 -2.43083 
44 67 2 2.53186 -12.2649 -3.41527 
45 15 3 4.98269 -12.1823 -4.50586 
46 29 4 0.49307 -14.0636 -2.0409 
91 29 4 2.08726 -11.4962 -4.14318 
71 67 2 16.1347 -11.0816 -3.99792 
72 15 3 18.796 -11.062 -3.66868 
73 29 4 13.6068 -12.7103 -3.526 
90 15 3 -1.23148 -7.70921 -6.25305 
89 67 2 0.964311 -9.19804 -5.80865 
116 67 2 -29.9549 8.17788 -4.66685 
118 29 4 -30.2798 5.29877 -5.63067 
18 86.8 1 -27.1386 9.47215 -10.0209 
117 15 3 -29.4547 9.72933 -2.51265 
7 86.8 1 22.2036 5.50261 -5.52986 
106 29 4 -30.7598 14.0098 -7.55887 
148 29 4 3.98918 11.2621 -1.40317 
108 15 3 -29.1018 22.4813 -0.765717 
2 86.8 1 7.2201 32.6458 -7.63778 
14 86.8 1 4.26206 -37.561 9.47026 
32 86.8 1 22.9149 -32.6229 9.27126 
38 86.8 1 16.9623 -28.586 6.97324 
1 86.8 1 -39.179 -19.113 1.08611 
137 67 2 -14.0531 -12.205 3.50928 
138 15 3 -12.8037 -10.3026 4.94041 
139 29 4 -14.2473 -15.2164 3.03181 
28 86.8 1 39.2897 -19.0308 2.34367 
10 86.8 1 -20.0168 -4.92588 7.72723 
16 86.8 1 -8.12021 -8.75092 0.611992 
29 86.8 1 -3.84184 7.04514 3.1941 
109 29 4 -33.1464 20.0132 1.93721 
146 67 2 1.9418 10.8977 0.813791 
147 15 3 1.17056 11.7838 3.24474 
107 67 2 -31.5556 21.9439 0.202561 
74 67 2 -16.001 -30.762 16.2968 
76 29 4 -16.3961 -33.6155 17.3061 
101 67 2 -6.88082 -31.2159 15.8573 
103 29 4 -6.15995 -34.1616 16.135 
75 15 3 -14.2826 -28.706 16.2677 
86 67 2 -4.47101 -25.6941 10.8139 
87 15 3 -5.98497 -23.5239 10.3123 
88 29 4 -1.91082 -26.6844 12.1564 
102 15 3 -7.83711 -29.0495 17.1223 
30 86.8 1 -35.7961 -18.1678 15.0324 
5 86.8 1 -0.492958 -13.8391 11.1247 
11 86.8 1 26.4026 -12.3474 14.9799 
92 67 2 -17.6137 6.9516 12.1823 
93 15 3 -15.0353 7.60904 11.7552 
94 29 4 -19.4935 4.68432 13.0227 
155 67 2 -18.3899 6.49184 12.978 
156 15 3 -19.4091 4.18021 12.027 
157 29 4 -17.1141 9.14359 12.1712 
128 67 2 -32.8274 18.4677 15.5008 
129 15 3 -35.4352 18.5455 16.1386 
66 15 3 -20.8938 11.2227 10.8395 
130 29 4 -30.0349 17.8594 16.5886 
65 67 2 -19.0752 11.3549 12.8171 
67 29 4 -16.851 13.0559 14.0294 
21 86.8 1 -21.0713 -35.1013 26.5578 
160 29 4 30.9219 -38.1065 28.9937 
8 86.8 1 -18.0794 -21.71 22.8061 
62 67 2 -1.22204 -27.5601 29.5895 
63 15 3 -3.71736 -27.2838 28.6278 
134 67 2 9.69466 -26.6504 26.1452 
136 29 4 9.59348 -28.9327 24.1222 
135 15 3 11.2056 -25.5121 28.064 
110 67 2 35.54 -27.8464 24.8955 
111 15 3 33.7582 -27.9734 22.8809 
112 29 4 36.5407 -26.1466 27.2148 
12 86.8 1 8.18688 -12.0083 26.7014 
42 15 3 -37.5788 -3.0889 29.0986 
152 67 2 19.1368 -0.0169139 22.6177 
153 15 3 19.4906 -2.68232 22.4861 
25 86.8 1 -16.7023 1.27308 28.9808 
83 67 2 10.546 9.69185 24.8557 
85 29 4 10.8188 6.75486 24.0526 
154 29 4 20.4058 2.66446 21.9021 
40 86.8 1 -33.0118 17.0079 21.8316 
84 15 3 11.7947 11.7622 26.0268 
24 86.8 1 25.8828 35.8452 20.0305 
158 67 2 31.7882 39.2183 27.8092 
159 15 3 33.6553 37.2717 27.9468 
19 86.8 1 -6.81597 -30.4196 34.6979 
22 86.8 1 0.370274 -32.015 34.4043 
64 29 4 0.546913 -29.3101 31.3609 
41 67 2 -38.079 -3.01366 31.7471 
43 29 4 -39.8341 -4.17685 33.9522 
95 67 2 -1.49252 -3.05812 30.332 
96 15 3 -3.33679 -1.10155 30.4334 
97 29 4 -0.695807 -5.76237 31.5086 
33 86.8 1 -24.959 9.94677 30.8048 
13 86.8 1 18.8863 7.248 39.3407 
61 29 4 -33.7902 19.7889 39.1451 
77 67 2 2.61361 23.2071 38.628 
79 29 4 4.34305 22.6225 36.2026 
47 67 2 -13.9872 34.4215 35.9212 
48 15 3 -14.1364 34.9584 33.2885 
49 29 4 -14.9394 35.2549 38.7044 
35 86.8 1 29.1849 36.7667 38.8154 
ITEM: TIMESTEP
6000
ITEM: NUMBER OF ATOMS
160
ITEM: BOX BOUNDS pp pp pp
-4.0000000000000000e+01 4.0000000000000000e+01
-4.0000000000000000e+01 4.0000000000000000e+01
-4.0000000000000000e+01 4.0000000000000000e+01
ITEM: ATOMS id mass type x y z 
98 67 2 -39.7233 -32.6254 -38.5605 
99 15 3 -38.5741 -30.5427 -39.8099 
100 29 4 39.1516 -33.6122 -35.9013 
39 86.8 1 -16.1828 -13.393 -32.7826 
80 67 2 18.0034 -15.2622 -33.6597 
81 15 3 18.8214 -17.5666 -32.5418 
82 29 4 15.598 -13.7759 -34.7851 
50 67 2 28.0249 -15.2598 -37.6242 
51 15 3 27.1743 -13.0665 -38.923 
132 15 3 29.8221 -13.7576 -30.512 
52 29 4 30.3739 -16.4804 -36.1089 
15 86.8 1 -10.9551 -0.135428 -37.1917 
23 86.8 1 10.5889 6.50552 -39.5645 
60 15 3 -28.9541 18.8519 -38.5459 
59 67 2 -31.149 20.1317 -39.4388 
56 67 2 -28.3992 27.8046 -35.3274 
57 15 3 -27.4896 25.2844 -35.1576 
17 86.8 1 -5.4516 23.3762 -31.8781 
78 15 3 1.39054 22.1255 -39.2276 
58 29 4 -28.7888 30.1746 -37.2098 
26 86.8 1 -11.3973 33.1003 -31.0055 
4 86.8 1 -1.21644 31.3089 -38.4255 
34 86.8 1 10.2343 39.1314 -39.2091 
142 29 4 -32.0653 -39.761 -20.6078 
9 86.8 1 29.1765 -33.1335 -21.4027 
121 29 4 20.4793 -32.3907 -20.883 
119 67 2 19.7237 -29.4528 -21.1873 
120 15 3 20.531 -27.075 -22.1613 
20 86.8 1 28.772 -12.9488 -27.6366 
131 67 2 27.2113 -13.5515 -29.8846 
133 29 4 24.9844 -14.731 -28.1676 
37 86.8 1 -26.9379 36.9931 -25.3342 
27 86.8 1 -5.60592 -34.0077 -18.011 
53 67 2 8.99052 -34.0424 -10.1219 
55 29 4 6.49427 -34.2781 -11.8619 
36 86.8 1 -38.71 -22.0708 -16.5268 
6 86.8 1 23.8267 -12.723 -14.8307 
31 86.8 1 -1.56543 -2.29396 -11.3561 
70 29 4 -4.73409 -0.653143 -18.4852 
68 67 2 -5.33387 1.58582 -16.5073 
69 15 3 -4.27908 3.68702 -15.2033 
3 86.8 1 -36.7946 14.2882 -19.5434 
104 67 2 -29.1874 14.6066 -10.1488 
105 15 3 -28.2872 13.5833 -12.4641 
140 67 2 -32.6125 37.8184 -18.8358 
141 15 3 -31.553 36.2053 -16.9553 
149 67 2 -17.4808 35.2844 -14.1549 
150 15 3 -15.2369 36.7736 -14.102 
151 29 4 -18.5718 32.4412 -14.2936 
115 29 4 18.5473 30.3512 -18.5415 
113 67 2 20.303 32.4001 -19.9561 
114 15 3 22.8331 33.2836 -20.2217 
54 15 3 11.577 -34.7509 -9.92201 
145 29 4 0.0492985 -28.2128 -2.24661 
143 67 2 0.664306 -25.2606 -1.80462 
144 15 3 2.24332 -23.2154 -2.55468 
122 67 2 38.5391 -22.6555 -5.27876 
123 15 3 39.3996 -21.7119 -7.64373 
124 29 4 37.5135 -25.1302 -3.81561 
125 67 2 -36.7391 -17.8391 -4.87152 
126 15 3 -35.0888 -15.897 -5.72988 
127 29 4 -38.1357 -18.979 -2.41314 
44 67 2 2.53562 -12.2961 -3.35376 
45 15 3 4.9638 -12.1459 -4.49981 
46 29 4 0.521936 -14.1812 -2.04724 
91 29 4 2.167 -11.5725 -4.14644 
71 67 2 16.1293 -11.0829 -3.99133 
72 15 3 18.7767 -10.9691 -3.53645 
73 29 4 13.6145 -12.7517 -3.53443 
90 15 3 -1.19179 -7.79689 -6.20612 
89 67 2 1.03439 -9.23079 -5.73661 
116 67 2 -29.9291 8.11821 -4.68387 
118 29 4 -30.2455 5.23422 -5.61041 
18 86.8 1 -27.1304 9.49874 -10.0381 
117 15 3 -29.4149 9.69101 -2.55981 
7 86.8 1 22.2268 5.51006 -5.54317 
106 29 4 -30.8012 14.0277 -7.628 
148 29 4 4.03267 11.3216 -1.35484 
108 15 3 -29.0962 22.4095 -0.88479 
2 86.8 1 7.18267 32.6447 -7.66939 
14 86.8 1 4.2401 -37.6265 9.51049 
32 86.8 1 22.9018 -32.6223 9.29553 
38 86.8 1 16.9573 -28.5731 6.9304 
1 86.8 1 -39.1709 -19.0969 1.16983 
137 67 2 -14.102 -12.1944 3.48297 
138 15 3 -12.7778 -10.2829 4.83145 
139 29 4 -14.3108 -15.1995 3.02143 
28 86.8 1 39.3336 -19.0532 2.32766 
10 86.8 1 -20.0823 -4.95465 7.7755 
16 86.8 1 -8.14388 -8.74722 0.615929 
29 86.8 1 -3.80867 7.04045 3.15679 
109 29 4 -33.1451 20.0631 1.92972 
146 67 2 1.94181 10.8548 0.815973 
147 15 3 1.01104 11.7565 3.17896 
107 67 2 -31.536 21.9501 0.154581 
74 67 2 -15.9546 -30.7472 16.249 
76 29 4 -16.3752 -33.601 17.2359 
101 67 2 -6.8746 -31.2121 15.8404 
103 29 4 -6.12472 -34.1605 16.1152 
75 15 3 -14.2083 -28.7073 16.1997 
86 67 2 -4.49596 -25.6752 10.8622 
87 15 3 -5.86134 -23.4385 10.2555 
88 29 4 -1.99429 -26.76 12.2224 
102 15 3 -7.6965 -29.0197 17.1667 
30 86.8 1 -35.777 -18.1942 15.0785 
5 86.8 1 -0.48187 -13.8237 11.1436 
11 86.8 1 26.4074 -12.3359 14.9895 
92 67 2 -17.5915 6.8952 12.1343 
93 15 3 -15.0123 7.57188 11.7927 
94 29 4 -19.4676 4.65725 12.982 
155 67 2 -18.4092 6.51115 12.8809 
156 15 3 -19.3354 4.159 11.9498 
157 29 4 -17.0945 9.13882 12.0969 
128 67 2 -32.8533 18.4591 15.4648 
129 15 3 -35.4541 18.6211 16.1182 
66 15 3 -20.8545 11.3058 10.835 
130 29 4 -30.0797 17.7842 16.5291 
65 67 2 -19.0099 11.3787 12.7909 
67 29 4 -16.728 13.0126 13.9823 
21 86.8 1 -21.0121 -35.0789 26.5878 
160 29 4 30.9201 -38.1754 29.0839 
8 86.8 1 -18.1372 -21.7131 22.8131 
62 67 2 -1.24016 -27.5996 29.5647 
63 15 3 -3.74748 -27.3426 28.6313 
134 67 2 9.66566 -26.6696 26.1905 
136 29 4 9.55554 -28.9167 24.1365 
135 15 3 11.2646 -25.4034 27.9452 
110 67 2 35.4793 -27.8569 24.8809 
111 15 3 33.7543 -27.8938 22.8145 
112 29 4 36.5391 -26.1744 27.195 
12 86.8 1 8.18234 -12.0014 26.6975 
42 15 3 -37.5121 -3.04219 29.1426 
152 67 2 19.1158 7.338e-05 22.591 
153 15 3 19.5432 -2.65354 22.4962 
25 86.8 1 -16.6372 1.29497 29.0112 
83 67 2 10.5392 9.62283 24.8755 
85 29 4 10.7958 6.68778 24.0943 
154 29 4 20.3239 2.71028 21.9021 
40 86.8 1 -32.9988 17.0581 21.8463 
84 15 3 11.7668 11.671 26.1082 
24 86.8 1 25.8736 35.8678 20.0265 
158 67 2 31.7833 39.1946 27.8142 
159 15 3 33.5484 37.1684 27.9818 
19 86.8 1 -6.82698 -30.4153 34.7154 
22 86.8 1 0.38996 -32.0403 34.4571 
64 29 4 0.561978 -29.3036 31.3331 
41 67 2 -38.0687 -2.96672 31.7749 
43 29 4 -39.8536 -4.1363 33.9496 
95 67 2 -1.49701 -3.10653 30.3469 
96 15 3 -3.26876 -1.09656 30.5694 
97 29 4 -0.672528 -5.80564 31.4939 
33 86.8 1 -24.9679 9.94991 30.8013 
13 86.8 1 18.9024 7.2702 39.4079 
61 29 4 -33.7671 19.7919 39.0253 
77 67 2 2.57816 23.251 38.6391 
79 29 4 4.27605 22.6742 36.1627 
47 67 2 -13.9559 34.3458 35.9088 
48 15 3 -14.0571 34.9119 33.2815 
49 29 4 -14.9429 35.17 38.6725 
35 86.8 1 29.1943 36.7853 38.8325 
ITEM: TIMESTEP
8000
ITEM: NUMBER OF ATOMS
160
ITEM: BOX BOUNDS pp pp pp
-4.0000000000000000e+01 4.0000000000000000e+01
-4.0000000000000000e+01 4.0000000000000000e+01
-4.0000000000000000e+01 4.0000000000000000e+01
ITEM: ATOMS id mass type x y z 
98 67 2 -39.7126 -32.5274 -38.5474 
99 15 3 -38.5756 -30.4042 -39.7558 
100 29 4 39.1098 -33.5385 -35.9244 
39 86.8 1 -16.1919 -13.4063 -32.7359 
80 67 2 17.9818 -15.2681 -33.696 
81 15 3 18.8168 -17.5607 -32.5701 
82 29 4 15.5586 -13.8069 -34.8176 
50 67 2 28.0802 -15.2439 -37.6691 
51 15 3 27.2125 -13.0198 -38.9164 
132 15 3 29.7828 -13.7754 -30.5754 