ITEM: TIMESTEP
0
ITEM: NUMBER OF ATOMS
256
ITEM: BOX BOUNDS pp pp pp
0.0000000000000000e+00 2.1504000000000001e+01
0.0000000000000000e+00 2.1504000000000001e+01
0.0000000000000000e+00 2.1504000000000001e+01
ITEM: ATOMS id type xs ys zs
1 1 0 0 0
2 1 0.125 0.125 0
3 1 0.125 0 0.125
4 1 0 0.125 0.125
5 1 0.25 0 0
6 1 0.375 0.125 0
7 1 0.375 0 0.125
8 1 0.25 0.125 0.125
9 1 0.5 0 0
12 1 0.5 0.125 0.125
17 1 0 0.25 0
18 1 0.125 0.375 0
19 1 0.125 0.25 0.125
20 1 0 0.375 0.125
21 1 0.25 0.25 0
22 1 0.375 0.375 0
23 1 0.375 0.25 0.125
24 1 0.25 0.375 0.125
25 1 0.5 0.25 0
28 1 0.5 0.375 0.125
33 1 0 0.5 0
35 1 0.125 0.5 0.125
37 1 0.25 0.5 0
39 1 0.375 0.5 0.125
41 1 0.5 0.5 0
65 1 0 0 0.25
66 1 0.125 0.125 0.25
67 1 0.125 0 0.375
68 1 0 0.125 0.375
69 1 0.25 0 0.25
70 1 0.375 0.125 0.25
71 1 0.375 0 0.375
72 1 0.25 0.125 0.375
73 1 0.5 0 0.25
76 1 0.5 0.125 0.375
81 1 0 0.25 0.25
82 1 0.125 0.375 0.25
83 1 0.125 0.25 0.375
84 1 0 0.375 0.375
85 1 0.25 0.25 0.25
86 1 0.375 0.375 0.25
87 1 0.375 0.25 0.375
88 1 0.25 0.375 0.375
89 1 0.5 0.25 0.25
92 1 0.5 0.375 0.375
97 1 0 0.5 0.25
99 1 0.125 0.5 0.375
101 1 0.25 0.5 0.25
103 1 0.375 0.5 0.375
105 1 0.5 0.5 0.25
129 1 0 0 0.5
130 1 0.125 0.125 0.5
133 1 0.25 0 0.5
134 1 0.375 0.125 0.5
137 1 0.5 0 0.5
145 1 0 0.25 0.5
146 1 0.125 0.375 0.5
149 1 0.25 0.25 0.5
150 1 0.375 0.375 0.5
153 1 0.5 0.25 0.5
161 1 0 0.5 0.5
165 1 0.25 0.5 0.5
169 1 0.5 0.5 0.5
10 1 0.625 0.125 0
11 1 0.625 0 0.125
13 1 0.75 0 0
14 1 0.875 0.125 0
15 1 0.875 0 0.125
16 1 0.75 0.125 0.125
26 1 0.625 0.375 0
27 1 0.625 0.25 0.125
29 1 0.75 0.25 0
30 1 0.875 0.375 0
31 1 0.875 0.25 0.125
32 1 0.75 0.375 0.125
43 1 0.625 0.5 0.125
45 1 0.75 0.5 0
47 1 0.875 0.5 0.125
74 1 0.625 0.125 0.25
75 1 0.625 0 0.375
77 1 0.75 0 0.25
78 1 0.875 0.125 0.25
79 1 0.875 0 0.375
80 1 0.75 0.125 0.375
90 1 0.625 0.375 0.25
91 1 0.625 0.25 0.375
93 1 0.75 0.25 0.25
94 1 0.875 0.375 0.25
95 1 0.875 0.25 0.375
96 1 0.75 0.375 0.375
107 1 0.625 0.5 0.375
109 1 0.75 0.5 0.25
111 1 0.875 0.5 0.375
138 1 0.625 0.125 0.5
141 1 0.75 0 0.5
142 1 0.875 0.125 0.5
154 1 0.625 0.375 0.5
157 1 0.75 0.25 0.5
158 1 0.875 0.375 0.5
173 1 0.75 0.5 0.5
34 1 0.125 0.625 0
36 1 0 0.625 0.125
38 1 0.375 0.625 0
40 1 0.25 0.625 0.125
44 1 0.5 0.625 0.125
49 1 0 0.75 0
50 1 0.125 0.875 0
51 1 0.125 0.75 0.125
52 1 0 0.875 0.125
53 1 0.25 0.75 0
54 1 0.375 0.875 0
55 1 0.375 0.75 0.125
56 1 0.25 0.875 0.125
57 1 0.5 0.75 0
60 1 0.5 0.875 0.125
98 1 0.125 0.625 0.25
100 1 0 0.625 0.375
102 1 0.375 0.625 0.25
104 1 0.25 0.625 0.375
108 1 0.5 0.625 0.375
113 1 0 0.75 0.25
114 1 0.125 0.875 0.25
115 1 0.125 0.75 0.375
116 1 0 0.875 0.375
117 1 0.25 0.75 0.25
118 1 0.375 0.875 0.25
119 1 0.375 0.75 0.375
120 1 0.25 0.875 0.375
121 1 0.5 0.75 0.25
124 1 0.5 0.875 0.375
162 1 0.125 0.625 0.5
166 1 0.375 0.625 0.5
177 1 0 0.75 0.5
178 1 0.125 0.875 0.5
181 1 0.25 0.75 0.5
182 1 0.375 0.875 0.5
185 1 0.5 0.75 0.5
42 1 0.625 0.625 0
46 1 0.875 0.625 0
48 1 0.75 0.625 0.125
58 1 0.625 0.875 0
59 1 0.625 0.75 0.125
61 1 0.75 0.75 0
62 1 0.875 0.875 0
63 1 0.875 0.75 0.125
64 1 0.75 0.875 0.125
106 1 0.625 0.625 0.25
110 1 0.875 0.625 0.25
112 1 0.75 0.625 0.375
122 1 0.625 0.875 0.25
123 1 0.625 0.75 0.375
125 1 0.75 0.75 0.25
126 1 0.875 0.875 0.25
127 1 0.875 0.75 0.375
128 1 0.75 0.875 0.375
170 1 0.625 0.625 0.5
174 1 0.875 0.625 0.5
186 1 0.625 0.875 0.5
189 1 0.75 0.75 0.5
190 1 0.875 0.875 0.5
131 1 0.125 0 0.625
132 1 0 0.125 0.625
135 1 0.375 0 0.625
136 1 0.25 0.125 0.625
140 1 0.5 0.125 0.625
147 1 0.125 0.25 0.625
148 1 0 0.375 0.625
151 1 0.375 0.25 0.625
152 1 0.25 0.375 0.625
156 1 0.5 0.375 0.625
163 1 0.125 0.5 0.625
167 1 0.375 0.5 0.625
193 1 0 0 0.75
194 1 0.125 0.125 0.75
195 1 0.125 0 0.875
196 1 0 0.125 0.875
197 1 0.25 0 0.75
198 1 0.375 0.125 0.75
199 1 0.375 0 0.875
200 1 0.25 0.125 0.875
201 1 0.5 0 0.75
204 1 0.5 0.125 0.875
209 1 0 0.25 0.75
210 1 0.125 0.375 0.75
211 1 0.125 0.25 0.875
212 1 0 0.375 0.875
213 1 0.25 0.25 0.75
214 1 0.375 0.375 0.75
215 1 0.375 0.25 0.875
216 1 0.25 0.375 0.875
217 1 0.5 0.25 0.75
220 1 0.5 0.375 0.875
225 1 0 0.5 0.75
227 1 0.125 0.5 0.875
229 1 0.25 0.5 0.75
231 1 0.375 0.5 0.875
233 1 0.5 0.5 0.75
139 1 0.625 0 0.625
143 1 0.875 0 0.625
144 1 0.75 0.125 0.625
155 1 0.625 0.25 0.625
159 1 0.875 0.25 0.625
160 1 0.75 0.375 0.625
171 1 0.625 0.5 0.625
175 1 0.875 0.5 0.625
202 1 0.625 0.125 0.75
203 1 0.625 0 0.875
205 1 0.75 0 0.75
206 1 0.875 0.125 0.75
207 1 0.875 0 0.875
208 1 0.75 0.125 0.875
218 1 0.625 0.375 0.75
219 1 0.625 0.25 0.875
221 1 0.75 0.25 0.75
222 1 0.875 0.375 0.75
223 1 0.875 0.25 0.875
224 1 0.75 0.375 0.875
235 1 0.625 0.5 0.875
237 1 0.75 0.5 0.75
239 1 0.875 0.5 0.875
164 1 0 0.625 0.625
168 1 0.25 0.625 0.625
172 1 0.5 0.625 0.625
179 1 0.125 0.75 0.625
180 1 0 0.875 0.625
183 1 0.375 0.75 0.625
184 1 0.25 0.875 0.625
188 1 0.5 0.875 0.625
226 1 0.125 0.625 0.75
228 1 0 0.625 0.875
230 1 0.375 0.625 0.75
232 1 0.25 0.625 0.875
236 1 0.5 0.625 0.875
241 1 0 0.75 0.75
242 1 0.125 0.875 0.75
243 1 0.125 0.75 0.875
244 1 0 0.875 0.875
245 1 0.25 0.75 0.75
246 1 0.375 0.875 0.75
247 1 0.375 0.75 0.875
248 1 0.25 0.875 0.875
249 1 0.5 0.75 0.75
252 1 0.5 0.875 0.875
176 1 0.75 0.625 0.625
187 1 0.625 0.75 0.625
191 1 0.875 0.75 0.625
192 1 0.75 0.875 0.625
234 1 0.625 0.625 0.75
238 1 0.875 0.625 0.75
240 1 0.75 0.625 0.875
250 1 0.625 0.875 0.75
251 1 0.625 0.75 0.875
253 1 0.75 0.75 0.75
254 1 0.875 0.875 0.75
255 1 0.875 0.75 0.875
256 1 0.75 0.875 0.875
ITEM: TIMESTEP
100
ITEM: NUMBER OF ATOMS
256
ITEM: BOX BOUNDS pp pp pp
0.0000000000000000e+00 2.1504000000000001e+01
0.0000000000000000e+00 2.1504000000000001e+01
0.0000000000000000e+00 2.1504000000000001e+01
ITEM: ATOMS id type xs ys zs
1 1 0.0105479 0.976073 0.985647
2 1 0.116097 0.11604 1.00376
3 1 0.140737 0.995076 0.126586
4 1 0.0127147 0.0921431 0.131979
5 1 0.253468 1.00439 0.994793
6 1 0.373289 0.11485 0.0227738
7 1 0.378378 0.0183735 0.141626
8 1 0.239878 0.124918 0.109599
9 1 0.489796 1.00671 0.0201347
12 1 0.52941 0.116103 0.154066
17 1 0.981071 0.237302 0.997204
18 1 0.0878767 0.358729 -0.020125
19 1 0.09591 0.229856 0.133041
20 1 0.975708 0.373626 0.115724
21 1 0.225771 0.249244 0.00556166
22 1 0.368615 0.343192 0.986251
23 1 0.353784 0.239084 0.124456
24 1 0.22347 0.348549 0.128288
25 1 0.499319 0.241524 0.00409045
28 1 0.482775 0.363206 0.125803
33 1 0.983697 0.493612 0.978636
35 1 0.111876 0.490547 0.104028
37 1 0.213268 0.539155 0.978029
39 1 0.356581 0.48298 0.0783741
41 1 0.49487 0.476224 1.00453
65 1 0.0203264 0.986051 0.250213
66 1 0.123366 0.116823 0.259415
67 1 0.131034 0.991779 0.400677
68 1 -0.00819191 0.107627 0.374658
69 1 0.244104 1.02341 0.263112
70 1 0.392137 0.139071 0.246072
71 1 0.386588 0.0226137 0.381244
72 1 0.233932 0.11146 0.39879
73 1 0.511867 0.0120004 0.26997
76 1 0.513153 0.133331 0.390097
81 1 0.0115337 0.258139 0.270717
82 1 0.134078 0.372062 0.267915
83 1 0.135929 0.242332 0.382546
84 1 0.982124 0.374992 0.380509
85 1 0.24901 0.218625 0.265255
86 1 0.366039 0.352921 0.241616
87 1 0.380954 0.241261 0.37396
88 1 0.274698 0.368521 0.383567
89 1 0.508875 0.255664 0.240158
92 1 0.478154 0.380906 0.357218
97 1 -0.00560256 0.485111 0.244431
99 1 0.100647 0.490987 0.373275
101 1 0.242688 0.510879 0.242736
103 1 0.386319 0.506715 0.358378
105 1 0.466946 0.496181 0.209008
129 1 0.987684 1.00176 0.503724
130 1 0.10808 0.126316 0.505554
133 1 0.242938 0.989053 0.517939
134 1 0.373066 0.135095 0.495743
137 1 0.522767 1.02196 0.498433
145 1 -0.00242211 0.243648 0.496674
146 1 0.133518 0.376614 0.479056
149 1 0.241891 0.237288 0.503427
150 1 0.389858 0.356245 0.493701
153 1 0.496925 0.238744 0.512172
161 1 0.999841 0.496992 0.498536
165 1 0.254765 0.508538 0.493749
169 1 0.51658 0.48022 0.483972
10 1 0.644896 0.0987359 0.013937
11 1 0.624404 0.989404 0.133355
13 1 0.774412 0.994678 1.00087
14 1 0.897499 0.0950074 0.0111287
15 1 0.868889 -0.00581088 0.13718
16 1 0.748432 0.129161 0.140367
26 1 0.614689 0.367766 1.00244
27 1 0.61897 0.246597 0.123493
29 1 0.752814 0.229827 0.0075928
30 1 0.861524 0.351873 0.956418
31 1 0.864457 0.253382 0.114863
32 1 0.737614 0.360661 0.121282
43 1 0.615574 0.474903 0.135257
45 1 0.741085 0.482388 0.0120819
47 1 0.841522 0.483559 0.12744
74 1 0.648092 0.169835 0.276317
75 1 0.644028 0.0328969 0.362487
77 1 0.745376 0.993726 0.236923
78 1 0.90057 0.132022 0.236218
79 1 0.864905 -0.00299215 0.353777
80 1 0.754753 0.15007 0.38346
90 1 0.638536 0.354527 0.250564
91 1 0.614487 0.275794 0.41062
93 1 0.766648 0.267367 0.262289
94 1 0.86726 0.383768 0.24791
95 1 0.886255 0.24257 0.373471
96 1 0.74896 0.380745 0.383883
107 1 0.611698 0.502363 0.370686
109 1 0.746995 0.5243 0.254401
111 1 0.866784 0.487288 0.379515
138 1 0.636456 0.138979 0.512968
141 1 0.757281 -0.00969208 0.506779
142 1 0.875243 0.125354 0.497959
154 1 0.650037 0.392767 0.52587
157 1 0.753977 0.257164 0.50315
158 1 0.888227 0.376099 0.516622
173 1 0.773203 0.504823 0.527341
34 1 0.105971 0.656633 0.962982
36 1 0.977245 0.573529 0.111978
38 1 0.366667 0.651275 0.977324
40 1 0.260515 0.63495 0.126392
44 1 0.46021 0.623617 0.100635
49 1 0.983317 0.740093 0.029618
50 1 0.134598 0.871122 0.997927
51 1 0.134212 0.753232 0.119549
52 1 1.00483 0.847868 0.155566
53 1 0.248439 0.763743 -0.0146031
54 1 0.37566 0.88572 0.9803
55 1 0.37566 0.765002 0.126513
56 1 0.27123 0.896394 0.120212
57 1 0.499276 0.79055 0.998394
60 1 0.483435 0.886452 0.125037
98 1 0.154666 0.640441 0.241645
100 1 0.965681 0.625902 0.387101
102 1 0.374605 0.631159 0.247079
104 1 0.259652 0.633819 0.380026
108 1 0.483825 0.640591 0.399445
113 1 0.0227825 0.730549 0.261952
114 1 0.14276 0.866957 0.239668
115 1 0.136307 0.764908 0.38242
116 1 0.0207925 0.87049 0.352123
117 1 0.267624 0.76114 0.263045
118 1 0.378875 0.902431 0.2466
119 1 0.397171 0.796002 0.375618
120 1 0.247801 0.893678 0.371666
121 1 0.486785 0.751827 0.239728
124 1 0.520046 0.906941 0.381623
162 1 0.129624 0.642545 0.466154
166 1 0.370668 0.642802 0.511944
177 1 0.00748061 0.759057 0.512254
178 1 0.138007 0.867658 0.524403
181 1 0.265287 0.755173 0.484375
182 1 0.386946 0.896375 0.492697
185 1 0.492159 0.758631 0.499781
42 1 0.631616 0.620404 0.015459
46 1 0.861769 0.60381 0.996049
48 1 0.74266 0.615367 0.135183
58 1 0.630068 0.895772 0.99868
59 1 0.606587 0.739763 0.127363
61 1 0.746184 0.742772 0.00340551
62 1 0.901036 0.875457 0.00873221
63 1 0.85017 0.746653 0.138832
64 1 0.747929 0.870842 0.104153
106 1 0.575459 0.605305 0.248086
110 1 0.874905 0.643411 0.261141
112 1 0.779099 0.609499 0.398311
122 1 0.60783 0.869824 0.252331
123 1 0.604541 0.754398 0.383011
125 1 0.716666 0.723561 0.267757
126 1 0.862173 0.874019 0.244299
127 1 0.893524 0.771239 0.369474
128 1 0.731122 0.889285 0.373493
170 1 0.634935 0.619738 0.485669
174 1 0.863783 0.639932 0.524576
186 1 0.647623 0.886919 0.519628
189 1 0.755215 0.762586 0.470539
190 1 0.892239 0.872282 0.50518
131 1 0.110121 0.0112266 0.618999
132 1 0.98437 0.123009 0.625799
135 1 0.37646 1.00724 0.602329
136 1 0.248682 0.119953 0.613999
140 1 0.509312 0.126527 0.620945
147 1 0.132863 0.24588 0.636413
148 1 0.0368842 0.395122 0.620437
151 1 0.335598 0.256833 0.62569
152 1 0.22062 0.382222 0.623429
156 1 0.512473 0.38192 0.620652
163 1 0.130993 0.536624 0.601766
167 1 0.391231 0.493307 0.59556
193 1 0.985075 0.993173 0.740319
194 1 0.124357 0.12254 0.742727
195 1 0.111058 0.984603 0.855862
196 1 0.0161125 0.118598 0.878153
197 1 0.272214 0.00119668 0.728905
198 1 0.397391 0.144497 0.736773
199 1 0.38086 1.00939 0.867986
200 1 0.234246 0.121597 0.872864
201 1 0.510404 0.0190766 0.735
204 1 0.507609 0.107482 0.89278
209 1 0.994704 0.243306 0.7562
210 1 0.130333 0.374051 0.746442
211 1 0.128059 0.248123 0.87517
212 1 -0.00749815 0.382756 0.843987
213 1 0.248515 0.267661 0.753606
214 1 0.399919 0.392052 0.740711
215 1 0.361725 0.238 0.871318
216 1 0.234113 0.385986 0.897069
217 1 0.517363 0.254147 0.753001
220 1 0.534694 0.373644 0.852767
225 1 0.998803 0.520187 0.744327
227 1 0.108813 0.503565 0.864747
229 1 0.241394 0.493467 0.756653
231 1 0.39318 0.481364 0.88034
233 1 0.504968 0.505484 0.724844
139 1 0.638116 0.00478886 0.638151
143 1 0.875481 0.982201 0.62903
144 1 0.740561 0.123712 0.648913
155 1 0.630152 0.242329 0.630153
159 1 0.879954 0.244631 0.631378
160 1 0.772999 0.354872 0.636615
171 1 0.630956 0.51829 0.626864
175 1 0.89169 0.512032 0.631665
202 1 0.620369 0.127782 0.762468
203 1 0.635395 0.99217 0.867138
205 1 0.766069 0.984162 0.77569
206 1 0.873362 0.121292 0.745521
207 1 0.895557 -0.00568635 0.878177
208 1 0.739772 0.116532 0.881268
218 1 0.635785 0.397633 0.727844
219 1 0.618354 0.228326 0.901688
221 1 0.730475 0.24297 0.766847
222 1 0.861536 0.337038 0.76913
223 1 0.869866 0.205599 0.880105
224 1 0.714446 0.36155 0.870717
235 1 0.634755 0.491968 0.891376
237 1 0.774053 0.489384 0.74063
239 1 0.873132 0.491698 0.86102
164 1 -0.00404099 0.638073 0.618937
168 1 0.259235 0.631016 0.627194
172 1 0.515088 0.622736 0.603905
179 1 0.143134 0.751907 0.631411
180 1 0.0104198 0.867015 0.639187
183 1 0.392067 0.752212 0.638023
184 1 0.267314 0.870559 0.626603
188 1 0.499991 0.89221 0.604086
226 1 0.132563 0.638137 0.745187
228 1 0.978233 0.619894 0.871915
230 1 0.373441 0.59093 0.736887
232 1 0.270898 0.627079 0.84658
236 1 0.488925 0.612948 0.868842
241 1 0.975004 0.743214 0.736293
242 1 0.146734 0.900019 0.727091
243 1 0.134818 0.770398 0.843238
244 1 0.00176716 0.863201 0.854984
245 1 0.266891 0.752057 0.738665
246 1 0.403956 0.885514 0.746054
247 1 0.361925 0.776243 0.860483
248 1 0.249835 0.889065 0.866906
249 1 0.525129 0.727008 0.772441
252 1 0.505768 0.908483 0.867464
176 1 0.73818 0.633913 0.634737
187 1 0.611392 0.743927 0.610221
191 1 0.843557 0.762223 0.626294
192 1 0.738175 0.884215 0.648863
234 1 0.635161 0.605267 0.768527
238 1 0.869153 0.63389 0.745325
240 1 0.750157 0.625887 0.880235
250 1 0.593726 0.865205 0.731366
251 1 0.618258 0.770087 0.897686
253 1 0.713893 0.756992 0.777756
254 1 0.86667 0.859555 0.752723
255 1 0.866264 0.741305 0.88029
256 1 0.775856 0.869098 0.898143
ITEM: TIMESTEP
200
ITEM: NUMBER OF ATOMS
256
ITEM: BOX BOUNDS pp pp pp
0.0000000000000000e+00 2.1504000000000001e+01
0.0000000000000000e+00 2.1504000000000001e+01
0.0000000000000000e+00 2.1504000000000001e+01
ITEM: ATOMS id type xs ys zs
1 1 0.00867706 0.981777 0.0014559
2 1 0.118033 0.122901 0.995447
3 1 0.128577 0.980157 0.12613
4 1 0.00896141 0.113354 0.127477
5 1 0.235346 0.0107906 0.993826
6 1 0.349501 0.127256 0.995457
7 1 0.382108 0.0249034 0.11777
8 1 0.227045 0.119087 0.135015
9 1 0.497954 0.00796185 0.00998097
12 1 0.494311 0.135605 0.134627
17 1 0.00231388 0.235717 0.00772474
18 1 0.111818 0.359983 0.996374
19 1 0.11415 0.243687 0.126729
20 1 0.992226 0.375888 0.125107
21 1 0.241266 0.242287 0.97933
22 1 0.361798 0.354175 0.993216
23 1 0.356316 0.227259 0.125303
24 1 0.2252 0.354064 0.113882
25 1 0.495286 0.222851 -0.00392484
28 1 0.490526 0.338306 0.101862
33 1 0.969592 0.496276 0.995027
35 1 0.12812 0.50014 0.11148
37 1 0.233001 0.535579 0.974911
39 1 0.331518 0.465385 0.101728
41 1 0.498574 0.48512 0.0100464
65 1 0.993476 0.99035 0.261944
66 1 0.112021 0.118075 0.252883
67 1 0.119022 0.00779424 0.369749
68 1 0.985624 0.124581 0.381714
69 1 0.26083 0.00922506 0.269137
70 1 0.387642 0.130878 0.257777
71 1 0.398614 0.0284128 0.390801
72 1 0.256944 0.125638 0.385091
73 1 0.514423 0.014895 0.259205
76 1 0.506071 0.152496 0.380796
81 1 0.986616 0.254282 0.237358
82 1 0.125156 0.375246 0.253762
83 1 0.104321 0.236726 0.3789
84 1 0.0114272 0.370345 0.368155
85 1 0.24067 0.236905 0.261939
86 1 0.340983 0.352536 0.232607
87 1 0.371883 0.259556 0.385052
88 1 0.250542 0.380846 0.376439
89 1 0.480484 0.26527 0.249035
92 1 0.487289 0.380271 0.375415
97 1 0.999855 0.515019 0.260833
99 1 0.138375 0.51505 0.360509
101 1 0.264574 0.491309 0.246905
103 1 0.372309 0.49109 0.371066
105 1 0.451944 0.468771 0.207965
129 1 0.987218 0.989367 0.50163
130 1 0.124034 0.122533 0.497643
133 1 0.251175 0.0172485 0.513852
134 1 0.380026 0.140354 0.518418
137 1 0.515392 0.0333773 0.506038
145 1 0.987151 0.245523 0.511872
146 1 0.12216 0.374675 0.497183
149 1 0.247596 0.254737 0.496523
150 1 0.364106 0.38178 0.504978
153 1 0.509695 0.250349 0.500739
161 1 0.00471489 0.507272 0.508943
165 1 0.241509 0.498327 0.487761
169 1 0.503362 0.493518 0.4906
10 1 0.635354 0.103682 0.00133403
11 1 0.636983 1.00173 0.136757
13 1 0.766169 0.990231 0.0300972
14 1 0.874766 0.117457 0.00411561
15 1 0.883193 0.982822 0.140862
16 1 0.758032 0.110475 0.136694
26 1 0.628099 0.359186 0.0165017
27 1 0.645844 0.225292 0.115221
29 1 0.751926 0.231777 0.991593
30 1 0.867992 0.365466 0.998028
31 1 0.884127 0.235823 0.121509
32 1 0.766663 0.35577 0.13397
43 1 0.624648 0.497948 0.130016
45 1 0.734671 0.492959 0.988779
47 1 0.860471 0.493788 0.121616
74 1 0.626799 0.150894 0.254792
75 1 0.621608 0.0143745 0.38928
77 1 0.744805 0.00471135 0.268585
78 1 0.87372 0.105062 0.262272
79 1 0.881154 0.996833 0.379168
80 1 0.76786 0.123937 0.377568
90 1 0.625608 0.372131 0.24799
91 1 0.630672 0.267848 0.380649
93 1 0.769357 0.241443 0.255244
94 1 0.882637 0.377001 0.261011
95 1 0.88566 0.255153 0.386068
96 1 0.769262 0.37189 0.382773
107 1 0.612461 0.484323 0.374504
109 1 0.758843 0.481451 0.261824
111 1 0.889799 0.504005 0.388706
138 1 0.646341 0.144495 0.496563
141 1 0.746572 0.0111635 0.490912
142 1 0.889317 0.120419 0.510791
154 1 0.634581 0.368884 0.512477
157 1 0.775997 0.248281 0.51443
158 1 0.892673 0.389104 0.50753
173 1 0.766405 0.504168 0.496617
34 1 0.120526 0.662469 0.964132
36 1 0.99316 0.6179 0.145188
38 1 0.364531 0.627105 0.961626
40 1 0.264579 0.637136 0.107546
44 1 0.477272 0.622976 0.0955408
49 1 0.982438 0.728629 0.0250697
50 1 0.130676 0.865189 0.988063
51 1 0.1369 0.744842 0.103494
52 1 0.99576 0.862271 0.131417
53 1 0.262007 0.765452 0.973311
54 1 0.363963 0.910329 1.0063
55 1 0.368893 0.764085 0.108835
56 1 0.262872 0.886949 0.123245
57 1 0.486196 0.754549 -0.000361549
60 1 0.488718 0.891735 0.134194
98 1 0.137032 0.632982 0.245367
100 1 0.999607 0.626679 0.379971
102 1 0.391828 0.645203 0.239548
104 1 0.263292 0.661553 0.367478
108 1 0.49953 0.617351 0.367411
113 1 0.987761 0.729594 0.254656
114 1 0.141093 0.891787 0.258897
115 1 0.144494 0.762178 0.36327
116 1 0.978461 0.871211 0.386957
117 1 0.266968 0.782513 0.247454
118 1 0.389811 0.900984 0.269086
119 1 0.401738 0.755216 0.376924
120 1 0.261042 0.901965 0.387076
121 1 0.500167 0.764888 0.238437
124 1 0.504396 0.899136 0.385019
162 1 0.130479 0.632578 0.50259
166 1 0.384717 0.629466 0.484485
177 1 0.00986359 0.757072 0.48896
178 1 0.117887 0.890876 0.480878
181 1 0.268891 0.763132 0.493959
182 1 0.397416 0.91196 0.501184
185 1 0.498273 0.766359 0.504289
42 1 0.606647 0.618073 1.00244
46 1 0.855136 0.616325 0.00772626
48 1 0.72861 0.615626 0.12532
58 1 0.620923 0.884794 0.0122899
59 1 0.625185 0.754439 0.111715
61 1 0.752188 0.746056 0.00404105
62 1 0.869914 0.861257 0.0215524
63 1 0.861704 0.734455 0.140945
64 1 0.739107 0.869118 0.144643
106 1 0.578454 0.622264 0.217123
110 1 0.86115 0.601341 0.247251
112 1 0.757668 0.627985 0.384291
122 1 0.619784 0.871496 0.251676
123 1 0.599252 0.754496 0.37019
125 1 0.716472 0.737372 0.241838
126 1 0.854305 0.860269 0.252058
127 1 0.86521 0.741189 0.376009
128 1 0.746049 0.870309 0.373327
170 1 0.631169 0.627402 0.486963
174 1 0.884354 0.638019 0.515072
186 1 0.635346 0.873202 0.500078
189 1 0.738338 0.754559 0.510297
190 1 0.864605 0.881423 0.502123
131 1 0.128151 0.999355 0.615507
132 1 0.00487083 0.108129 0.617236
135 1 0.400546 0.0176193 0.627091
136 1 0.249525 0.14503 0.625299
140 1 0.515969 0.143645 0.634457
147 1 0.122216 0.248301 0.622218
148 1 0.0103873 0.377962 0.623161
151 1 0.4046 0.261556 0.627405
152 1 0.24374 0.377655 0.614993
156 1 0.511992 0.391677 0.624806
163 1 0.139373 0.49466 0.618409
167 1 0.361645 0.491941 0.62605
193 1 0.0103287 0.987088 0.745742
194 1 0.127626 0.108465 0.737806
195 1 0.132715 1.00158 0.874765
196 1 0.995445 0.0987745 0.881193
197 1 0.25411 0.0106607 0.726623
198 1 0.367664 0.135993 0.751571
199 1 0.372487 0.0126401 0.869443
200 1 0.237522 0.126364 0.861071
201 1 0.486503 0.00212157 0.767528
204 1 0.509798 0.118994 0.87696
209 1 0.00275264 0.237507 0.742978
210 1 0.130689 0.369413 0.770816
211 1 0.10751 0.234136 0.878827
212 1 0.977072 0.356783 0.86485
213 1 0.240412 0.252281 0.749979
214 1 0.379639 0.377674 0.749118
215 1 0.390648 0.240955 0.87425
216 1 0.243251 0.381819 0.898829
217 1 0.499711 0.253953 0.756628
220 1 0.493291 0.357214 0.909334
225 1 0.0279733 0.497537 0.73431
227 1 0.102941 0.512662 0.882976
229 1 0.247389 0.498303 0.756512
231 1 0.368966 0.487989 0.876933
233 1 0.519725 0.498013 0.737067
139 1 0.633037 0.0097064 0.623474
143 1 0.872278 0.990108 0.63067
144 1 0.766988 0.122546 0.619246
155 1 0.639256 0.246249 0.622568
159 1 0.881377 0.24666 0.640466
160 1 0.771218 0.381995 0.625821
171 1 0.641773 0.504498 0.607061
175 1 0.883447 0.500516 0.636146
202 1 0.628765 0.11278 0.762034
203 1 0.627338 1.00044 0.877535
205 1 0.738435 -0.000147138 0.741735
206 1 0.887003 0.104432 0.752147
207 1 0.861681 0.987556 0.892974
208 1 0.760552 0.103711 0.889203
218 1 0.626334 0.373501 0.758309
219 1 0.622839 0.236196 0.881975
221 1 0.751435 0.230658 0.757299
222 1 0.84626 0.370939 0.76275
223 1 0.887033 0.225179 0.877262
224 1 0.727994 0.369019 0.89107
235 1 0.600179 0.486821 0.867048
237 1 0.745751 0.499698 0.733255
239 1 0.854699 0.500506 0.864677
164 1 0.0127451 0.638818 0.622801
168 1 0.25811 0.629023 0.603117
172 1 0.521377 0.612665 0.608087
179 1 0.132176 0.7503 0.602443
180 1 0.987241 0.875184 0.617641
183 1 0.387073 0.746507 0.617984
184 1 0.283905 0.895711 0.614702
188 1 0.50668 0.895864 0.619406
226 1 0.128189 0.630191 0.736191
228 1 0.986423 0.62108 0.861688
230 1 0.378122 0.620463 0.746107
232 1 0.244302 0.641579 0.847809
236 1 0.498414 0.623245 0.876538
241 1 0.0182646 0.747074 0.760208
242 1 0.146015 0.872211 0.7159
243 1 0.143969 0.776376 0.853453
244 1 1.00499 0.863143 0.884694
245 1 0.270389 0.755795 0.732975
246 1 0.394131 0.870874 0.745288
247 1 0.391773 0.751386 0.85649
248 1 0.270604 0.880165 0.862975
249 1 0.513287 0.735987 0.750216
252 1 0.500414 0.874832 0.89213
176 1 0.740607 0.647386 0.616294
187 1 0.619406 0.76645 0.623685
191 1 0.873786 0.760936 0.632319
192 1 0.743382 0.883155 0.625651
234 1 0.640885 0.627181 0.748338
238 1 0.844804 0.639982 0.760997
240 1 0.741862 0.626451 0.88487
250 1 0.614601 0.884113 0.757391
251 1 0.614515 0.741154 0.884157
253 1 0.738222 0.75402 0.750104
254 1 0.865284 0.855932 0.776786
255 1 0.8785 0.742141 0.892147
256 1 0.733361 0.877727 0.886434
ITEM: TIMESTEP
300
ITEM: NUMBER OF ATOMS
256
ITEM: BOX BOUNDS pp pp pp
0.0000000000000000e+00 2.1504000000000001e+01
0.0000000000000000e+00 2.1504000000000001e+01
0.0000000000000000e+00 2.1504000000000001e+01
ITEM: ATOMS id type xs ys zs
1 1 0.984618 0.989141 0.0108883
2 1 0.113089 0.113668 -0.000781005
3 1 0.0961924 0.0130105 0.122598
4 1 0.975926 0.123855 0.11943
5 1 0.255415 0.993722 -0.00281871
6 1 0.375038 0.127043 0.989996
7 1 0.366484 0.00233707 0.130636
8 1 0.233596 0.118124 0.119873
9 1 0.492721 0.0244698 0.00404623
12 1 0.505631 0.136755 0.130566
17 1 0.988372 0.246127 0.991743
18 1 0.114304 0.38842 1.00349
19 1 0.112527 0.238476 0.114618
20 1 0.993288 0.370266 0.114866
21 1 0.232841 0.23712 0.998461
22 1 0.390269 0.359949 0.0138435
23 1 0.354635 0.23389 0.128805
24 1 0.251128 0.382483 0.122897
25 1 0.503354 0.247138 0.996895
28 1 0.500384 0.371616 0.126603
33 1 0.0101195 0.519031 0.000419137
35 1 0.131115 0.508286 0.118197
37 1 0.24594 0.472578 0.998884
39 1 0.383226 0.515713 0.130228
41 1 0.488874 0.495785 -0.00439284
65 1 0.995131 0.990731 0.252237
66 1 0.121807 0.115163 0.245565
67 1 0.144537 0.0153036 0.386767
68 1 0.00576412 0.113596 0.37424
69 1 0.24086 0.00862109 0.25485
70 1 0.361354 0.130364 0.249593
71 1 0.380623 -0.0015473 0.362746
72 1 0.243837 0.142794 0.373093
73 1 0.478887 0.00196486 0.236959
76 1 0.505609 0.133133 0.364513
81 1 0.0166614 0.240122 0.273549
82 1 0.133956 0.384614 0.232605
83 1 0.121546 0.252763 0.388522
84 1 0.00388739 0.387857 0.38791
85 1 0.222239 0.255083 0.240667
86 1 0.370542 0.374866 0.252676
87 1 0.368087 0.263602 0.376115
88 1 0.234921 0.362213 0.370485
89 1 0.491214 0.243946 0.259002
92 1 0.509534 0.381417 0.368239
97 1 0.0121664 0.499525 0.236049
99 1 0.115714 0.485611 0.37968
101 1 0.246358 0.512195 0.234525
103 1 0.374423 0.502929 0.36294
105 1 0.520422 0.494277 0.251139
129 1 0.00766527 0.00583617 0.488447
130 1 0.121284 0.142621 0.510083
133 1 0.262987 0.0233307 0.506991
134 1 0.389543 0.148374 0.493116
137 1 0.486267 0.00994414 0.494903
145 1 0.996536 0.259929 0.49656
146 1 0.126494 0.366149 0.510408
149 1 0.249394 0.255079 0.507285
150 1 0.377417 0.380711 0.502248
153 1 0.504129 0.256352 0.504039
161 1 0.0210259 0.510762 0.506799
165 1 0.254726 0.498294 0.505942
169 1 0.498632 0.510409 0.51448
10 1 0.647781 0.133519 0.997298
11 1 0.619675 0.0146216 0.119544
13 1 0.741784 0.998693 0.993075
14 1 0.868246 0.115461 0.989808
15 1 0.862239 0.994511 0.134251
16 1 0.753909 0.127597 0.117702
26 1 0.641558 0.361197 0.987059
27 1 0.631033 0.249471 0.129506
29 1 0.76131 0.256019 0.00773336
30 1 0.879066 0.392065 0.00387984
31 1 0.879795 0.259187 0.135695
32 1 0.73975 0.371137 0.123711
43 1 0.612761 0.489265 0.112564
45 1 0.758873 0.495892 0.0160459
47 1 0.884267 0.511134 0.136209
74 1 0.655268 0.112575 0.252221
75 1 0.627503 0.0131392 0.378806
77 1 0.756216 0.986493 0.260388
78 1 0.879781 0.114974 0.255002
79 1 0.869077 0.984667 0.386894
80 1 0.747807 0.126507 0.383492
90 1 0.620035 0.357862 0.251127
91 1 0.63474 0.24465 0.358748
93 1 0.762184 0.245896 0.238999
94 1 0.882755 0.379932 0.249323
95 1 0.877066 0.23269 0.359619
96 1 0.759863 0.387373 0.370027
107 1 0.62773 0.49194 0.366839
109 1 0.729568 0.497541 0.240648
111 1 0.896846 0.515158 0.37188
138 1 0.616533 0.136034 0.498436
141 1 0.747214 0.990114 0.511906
142 1 0.860513 0.133065 0.500574
154 1 0.630638 0.374809 0.474853
157 1 0.749427 0.251846 0.485987
158 1 0.882034 0.389082 0.498723
173 1 0.755622 0.506832 0.492225
34 1 0.136428 0.61816 0.985916
36 1 0.0187767 0.638655 0.106215
38 1 0.366031 0.617831 0.00477383
40 1 0.250362 0.632829 0.118692
44 1 0.495626 0.629404 0.117168
49 1 0.999982 0.758609 0.993362
50 1 0.12812 0.880515 0.0134321
51 1 0.137153 0.76248 0.141904
52 1 0.0080191 0.869728 0.127853
53 1 0.254573 0.747178 0.0141019
54 1 0.392065 0.86463 -0.00270019
55 1 0.385416 0.763453 0.135556
56 1 0.227761 0.893271 0.142153
57 1 0.504445 0.734765 0.980241
60 1 0.498186 0.897427 0.120747
98 1 0.13384 0.639967 0.238086
100 1 0.0203451 0.623934 0.362138
102 1 0.361407 0.621305 0.25136
104 1 0.258042 0.612949 0.373579
108 1 0.513892 0.613242 0.35061
113 1 0.998679 0.754258 0.249722
114 1 0.118626 0.877334 0.266384
115 1 0.118637 0.756262 0.37823
116 1 0.997572 0.866432 0.385079
117 1 0.251233 0.745573 0.269515
118 1 0.360543 0.884303 0.237721
119 1 0.384737 0.756672 0.371373
120 1 0.266566 0.889694 0.382331
121 1 0.502343 0.765749 0.251001
124 1 0.497713 0.883664 0.370703
162 1 0.132864 0.62924 0.498066
166 1 0.382777 0.62275 0.488258
177 1 0.995784 0.734738 0.50534
178 1 0.124329 0.883754 0.485678
181 1 0.250232 0.742344 0.470744
182 1 0.389314 0.876403 0.497333
185 1 0.515637 0.751833 0.49852
42 1 0.623769 0.620425 0.00403173
46 1 0.875034 0.63593 0.996043
48 1 0.751612 0.622476 0.128807
58 1 0.615182 0.876978 0.00818636
59 1 0.593367 0.748586 0.118701
61 1 0.72234 0.75075 0.0157674
62 1 0.868916 0.855659 0.0174394
63 1 0.869021 0.743916 0.127451
64 1 0.744438 0.878824 0.129353
106 1 0.638555 0.621001 0.240289
110 1 0.865661 0.631892 0.254532
112 1 0.735762 0.622963 0.355548
122 1 0.62068 0.888404 0.241776
123 1 0.631025 0.744391 0.371223
125 1 0.750247 0.750724 0.25782
126 1 0.866512 0.880454 0.253111
127 1 0.8711 0.733121 0.381409
128 1 0.741279 0.863552 0.376082
170 1 0.609661 0.624342 0.502406
174 1 0.87724 0.608856 0.506312
186 1 0.602916 0.892385 0.494385
189 1 0.741242 0.738124 0.499846
190 1 0.890692 0.851343 0.502336
131 1 0.125371 0.995462 0.608815
132 1 0.996269 0.132858 0.624745
135 1 0.368657 0.997517 0.639195
136 1 0.261389 0.126036 0.630505
140 1 0.503772 0.137503 0.638827
147 1 0.127526 0.247103 0.635038
148 1 0.992623 0.357493 0.635631
151 1 0.390597 0.25519 0.627939
152 1 0.255208 0.373221 0.636217
156 1 0.510896 0.365317 0.635371
163 1 0.118713 0.493227 0.641334
167 1 0.378071 0.498715 0.630414
193 1 0.00514035 0.985794 0.754139
194 1 0.117719 0.130063 0.760052
195 1 0.127873 0.974905 0.871788
196 1 0.00228088 0.110796 0.878506
197 1 0.248643 0.0069191 0.758935
198 1 0.378219 0.133077 0.746662
199 1 0.372026 0.995153 0.872879
200 1 0.247727 0.117275 0.875404
201 1 0.534074 0.00253572 0.748572
204 1 0.490643 0.119449 0.863871
209 1 0.98503 0.252192 0.771851
210 1 0.107518 0.371828 0.742874
211 1 0.123005 0.254985 0.870678
212 1 0.994914 0.39205 0.890494
213 1 0.250448 0.236187 0.763579
214 1 0.377702 0.368068 0.761555
215 1 0.353897 0.254976 0.885322
216 1 0.233841 0.368792 0.865953
217 1 0.49698 0.250816 0.761578
220 1 0.504996 0.376503 0.869043
225 1 0.983187 0.49854 0.765684
227 1 0.120241 0.491417 0.866585
229 1 0.239472 0.499815 0.757389
231 1 0.368695 0.500939 0.884036
233 1 0.482222 0.483237 0.755033
139 1 0.622337 0.00765255 0.61854
143 1 0.890457 0.991732 0.617024
144 1 0.749203 0.115896 0.643151
155 1 0.649023 0.250289 0.635356
159 1 0.862588 0.247164 0.613852
160 1 0.739303 0.378909 0.607935
171 1 0.615025 0.499727 0.621148
175 1 0.869008 0.493212 0.627925
202 1 0.630485 0.137383 0.753346
203 1 0.621198 0.009591 0.875781
205 1 0.754548 0.985761 0.761742
206 1 0.882454 0.106977 0.755557
207 1 0.86506 0.969835 0.886522
208 1 0.748616 0.117522 0.862997
218 1 0.640487 0.368778 0.746772
219 1 0.646481 0.247873 0.878193
221 1 0.767476 0.245008 0.756684
222 1 0.881424 0.379383 0.75159
223 1 0.871521 0.245733 0.882943
224 1 0.775316 0.375324 0.870654
235 1 0.633749 0.498557 0.900261
237 1 0.724811 0.498601 0.767742