
units	lj
atom_style atomic

lattice	fcc $d
lattice	fcc 0.8442
Lattice spacing in x,y,z = 1.6796 1.6796 1.6796
region	box block 0 10 0 10 0 10
create_box	1 box
Created orthogonal box = (0 0 0) to (16.796 16.796 16.796)
  1 by 1 by 1 MPI processor grid
create_atoms	1 box
Created 4000 atoms
  Time spent = 0.000557899 secs
mass	1	1.0
velocity	all create $t 87287
velocity	all create 0.0 87287

pair_style	lj/cut 2.5
pair_coeff	1 1 1.0 1.0 2.5
neighbor	0.3 bin
neigh_modify	every 20 delay 0 check no

fix 1 all nve
thermo 10
run 1000
Neighbor list info ...
  update every 20 steps, delay 0 steps, check no
  max neighbors/atom: 2000, page size: 100000
  master list distance cutoff = 2.8
  ghost atom cutoff = 2.8
  binsize = 1.4, bins = 12 12 12
  1 neighbor lists, perpetual/occasional/extra = 1 0 0
  (1) pair lj/cut, perpetual
      attributes: half, newton on
      pair build: half/bin/atomonly/newton
      stencil: half/bin/3d/newton
      bin: standard
Per MPI rank memory allocation (min/avg/max) = 3.221 | 3.221 | 3.221 Mbytes
Step Temp E_pair E_mol TotEng Press 
       0            0   -6.7733681            0   -6.7733681   -6.2353173 
      10 3.215786e-30   -6.7733681            0   -6.7733681   -6.2353173 
      20 1.2727064e-29   -6.7733681            0   -6.7733681   -6.2353173 
      30 2.8486445e-29   -6.7733681            0   -6.7733681   -6.2353173 
      40 4.9713067e-29   -6.7733681            0   -6.7733681   -6.2353173 
      50 7.7496233e-29   -6.7733681            0   -6.7733681   -6.2353173 
      60 1.0961341e-28   -6.7733681            0   -6.7733681   -6.2353173 
      70 1.4905602e-28   -6.7733681            0   -6.7733681   -6.2353173 
      80 1.9080234e-28   -6.7733681            0   -6.7733681   -6.2353173 
      90 2.2671889e-28   -6.7733681            0   -6.7733681   -6.2353173 
     100 2.6226647e-28   -6.7733681            0   -6.7733681   -6.2353173 
     110 2.9008552e-28   -6.7733681            0   -6.7733681   -6.2353173 
     120 3.2426648e-28   -6.7733681            0   -6.7733681   -6.2353173 
     130 3.6044722e-28   -6.7733681            0   -6.7733681   -6.2353173 
     140 3.9922292e-28   -6.7733681            0   -6.7733681   -6.2353173 
     150 4.4363993e-28   -6.7733681            0   -6.7733681   -6.2353173 
     160 4.9517852e-28   -6.7733681            0   -6.7733681   -6.2353173 
     170 5.5395089e-28   -6.7733681            0   -6.7733681   -6.2353173 
     180 6.1828855e-28   -6.7733681            0   -6.7733681   -6.2353173 
     190 6.7905528e-28   -6.7733681            0   -6.7733681   -6.2353173 
     200 7.3368448e-28   -6.7733681            0   -6.7733681   -6.2353173 
     210 7.933568e-28   -6.7733681            0   -6.7733681   -6.2353173 
     220 8.616119e-28   -6.7733681            0   -6.7733681   -6.2353173 
     230 9.3848464e-28   -6.7733681            0   -6.7733681   -6.2353173 
     240 1.023975e-27   -6.7733681            0   -6.7733681   -6.2353173 
     250 1.118083e-27   -6.7733681            0   -6.7733681   -6.2353173 
     260 1.2208087e-27   -6.7733681            0   -6.7733681   -6.2353173 
     270 1.3320539e-27   -6.7733681            0   -6.7733681   -6.2353173 
     280 1.4478782e-27   -6.7733681            0   -6.7733681   -6.2353173 
     290 1.5413375e-27   -6.7733681            0   -6.7733681   -6.2353173 
     300 1.6029291e-27   -6.7733681            0   -6.7733681   -6.2353173 
     310 1.6699491e-27   -6.7733681            0   -6.7733681   -6.2353173 
     320 1.7456102e-27   -6.7733681            0   -6.7733681   -6.2353173 
     330 1.8301951e-27   -6.7733681            0   -6.7733681   -6.2353173 
     340 1.923671e-27   -6.7733681            0   -6.7733681   -6.2353173 
     350 2.0257101e-27   -6.7733681            0   -6.7733681   -6.2353173 
     360 2.1349982e-27   -6.7733681            0   -6.7733681   -6.2353173 
     370 2.2498353e-27   -6.7733681            0   -6.7733681   -6.2353173 
     380 2.3699309e-27   -6.7733681            0   -6.7733681   -6.2353173 
     390 2.4956321e-27   -6.7733681            0   -6.7733681   -6.2353173 
     400 2.6267436e-27   -6.7733681            0   -6.7733681   -6.2353173 
     410 2.7634249e-27   -6.7733681            0   -6.7733681   -6.2353173 
     420 2.9049493e-27   -6.7733681            0   -6.7733681   -6.2353173 
     430 3.0502469e-27   -6.7733681            0   -6.7733681   -6.2353173 
     440 3.1983617e-27   -6.7733681            0   -6.7733681   -6.2353173 
     450 3.3478194e-27   -6.7733681            0   -6.7733681   -6.2353173 
     460 3.4984791e-27   -6.7733681            0   -6.7733681   -6.2353173 
     470 3.6512423e-27   -6.7733681            0   -6.7733681   -6.2353173 
     480 3.806375e-27   -6.7733681            0   -6.7733681   -6.2353173 
     490 3.9628883e-27   -6.7733681            0   -6.7733681   -6.2353173 
     500 4.1213739e-27   -6.7733681            0   -6.7733681   -6.2353173 
     510 4.2832465e-27   -6.7733681            0   -6.7733681   -6.2353173 
     520 4.4493098e-27   -6.7733681            0   -6.7733681   -6.2353173 
     530 4.6205542e-27   -6.7733681            0   -6.7733681   -6.2353173 
     540 4.7972116e-27   -6.7733681            0   -6.7733681   -6.2353173 
     550 4.9786437e-27   -6.7733681            0   -6.7733681   -6.2353173 
     560 5.1647367e-27   -6.7733681            0   -6.7733681   -6.2353173 
     570 5.3552698e-27   -6.7733681            0   -6.7733681   -6.2353173 
     580 5.5499366e-27   -6.7733681            0   -6.7733681   -6.2353173 
     590 5.7474276e-27   -6.7733681            0   -6.7733681   -6.2353173 
     600 5.9468757e-27   -6.7733681            0   -6.7733681   -6.2353173 
     610 6.1468993e-27   -6.7733681            0   -6.7733681   -6.2353173 
     620 6.3475853e-27   -6.7733681            0   -6.7733681   -6.2353173 
     630 6.5485147e-27   -6.7733681            0   -6.7733681   -6.2353173 
     640 6.7506041e-27   -6.7733681            0   -6.7733681   -6.2353173 
     650 6.9540204e-27   -6.7733681            0   -6.7733681   -6.2353173 
     660 7.1607972e-27   -6.7733681            0   -6.7733681   -6.2353173 
     670 7.3709453e-27   -6.7733681            0   -6.7733681   -6.2353173 
     680 7.5840466e-27   -6.7733681            0   -6.7733681   -6.2353173 
     690 7.7993216e-27   -6.7733681            0   -6.7733681   -6.2353173 
     700 8.015607e-27   -6.7733681            0   -6.7733681   -6.2353173 
     710 8.2315184e-27   -6.7733681            0   -6.7733681   -6.2353173 
     720 8.4408823e-27   -6.7733681            0   -6.7733681   -6.2353173 
     730 8.6319658e-27   -6.7733681            0   -6.7733681   -6.2353173 
     740 8.7692836e-27   -6.7733681            0   -6.7733681   -6.2353173 
     750 8.8169109e-27   -6.7733681            0   -6.7733681   -6.2353173 
     760 8.7911063e-27   -6.7733681            0   -6.7733681   -6.2353173 
     770 8.7128851e-27   -6.7733681            0   -6.7733681   -6.2353173 
     780 8.6014084e-27   -6.7733681            0   -6.7733681   -6.2353173 
     790 8.4716651e-27   -6.7733681            0   -6.7733681   -6.2353173 
     800 8.3338442e-27   -6.7733681            0   -6.7733681   -6.2353173 
     810 8.1905085e-27   -6.7733681            0   -6.7733681   -6.2353173 
     820 8.0388831e-27   -6.7733681            0   -6.7733681   -6.2353173 
     830 7.8687724e-27   -6.7733681            0   -6.7733681   -6.2353173 
     840 7.6806392e-27   -6.7733681            0   -6.7733681   -6.2353173 
     850 7.4838874e-27   -6.7733681            0   -6.7733681   -6.2353173 
     860 7.2837312e-27   -6.7733681            0   -6.7733681   -6.2353173 
     870 7.0817609e-27   -6.7733681            0   -6.7733681   -6.2353173 
     880 6.8823831e-27   -6.7733681            0   -6.7733681   -6.2353173 
     890 6.6905958e-27   -6.7733681            0   -6.7733681   -6.2353173 
     900 6.5079538e-27   -6.7733681            0   -6.7733681   -6.2353173 
     910 6.3354295e-27   -6.7733681            0   -6.7733681   -6.2353173 
     920 6.1716284e-27   -6.7733681            0   -6.7733681   -6.2353173 
     930 6.0175513e-27   -6.7733681            0   -6.7733681   -6.2353173 
     940 5.8743576e-27   -6.7733681            0   -6.7733681   -6.2353173 
     950 5.741402e-27   -6.7733681            0   -6.7733681   -6.2353173 
     960 5.6172811e-27   -6.7733681            0   -6.7733681   -6.2353173 
     970 5.5026431e-27   -6.7733681            0   -6.7733681   -6.2353173 
     980 5.3974311e-27   -6.7733681            0   -6.7733681   -6.2353173 
     990 5.3023763e-27   -6.7733681            0   -6.7733681   -6.2353173 
    1000 5.2169649e-27   -6.7733681            0   -6.7733681   -6.2353173 
Loop time of 1.82643 on 1 procs for 1000 steps with 4000 atoms

Performance: 236527.386 tau/day, 547.517 timesteps/s
99.8% CPU use with 1 MPI tasks x no OpenMP threads

MPI task timing breakdown:
Section |  min time  |  avg time  |  max time  |%varavg| %total
---------------------------------------------------------------
Pair    | 1.5408     | 1.5408     | 1.5408     |   0.0 | 84.36
Neigh   | 0.20502    | 0.20502    | 0.20502    |   0.0 | 11.23
Comm    | 0.034488   | 0.034488   | 0.034488   |   0.0 |  1.89
Output  | 0.0035062  | 0.0035062  | 0.0035062  |   0.0 |  0.19
Modify  | 0.033303   | 0.033303   | 0.033303   |   0.0 |  1.82
Other   |            | 0.009356   |            |       |  0.51

Nlocal:    4000 ave 4000 max 4000 min
Histogram: 1 0 0 0 0 0 0 0 0 0
Nghost:    5841 ave 5841 max 5841 min
Histogram: 1 0 0 0 0 0 0 0 0 0
Neighs:    156000 ave 156000 max 156000 min
Histogram: 1 0 0 0 0 0 0 0 0 0

Total # of neighbors = 156000
Ave neighs/atom = 39
Neighbor list builds = 50
Dangerous builds not checked
Total wall time: 0:00:01
