
units	lj
atom_style atomic

lattice	fcc $d
lattice	fcc 0.8442
Lattice spacing in x,y,z = 1.6796 1.6796 1.6796
region	box block 0 10 0 10 0 10
create_box	1 box
Created orthogonal box = (0 0 0) to (16.796 16.796 16.796)
  1 by 1 by 1 MPI processor grid
create_atoms	1 box
Created 4000 atoms
  Time spent = 0.00166488 secs
mass	1	1.0
velocity	all create $t 87287
velocity	all create 3.0 87287

pair_style	lj/cut 2.5
pair_coeff	1 1 1.0 1.0 2.5
neighbor	0.3 bin
neigh_modify	every 20 delay 0 check no

fix 1 all nve
thermo 10
run 1000
Neighbor list info ...
  update every 20 steps, delay 0 steps, check no
  max neighbors/atom: 2000, page size: 100000
  master list distance cutoff = 2.8
  ghost atom cutoff = 2.8
  binsize = 1.4, bins = 12 12 12
  1 neighbor lists, perpetual/occasional/extra = 1 0 0
  (1) pair lj/cut, perpetual
      attributes: half, newton on
      pair build: half/bin/atomonly/newton
      stencil: half/bin/3d/newton
      bin: standard
Per MPI rank memory allocation (min/avg/max) = 3.221 | 3.221 | 3.221 Mbytes
Step Temp E_pair E_mol TotEng Press 
       0            3   -6.7733681            0   -2.2744931   -3.7033504 
      10    2.1031859   -5.4317227            0   -2.2777326    2.4556252 
      20    1.6681241   -4.7867954            0   -2.2852348    5.6910177 
      30    1.6750435   -4.7955971            0   -2.2836601    5.6241836 
      40    1.6688388   -4.7857441            0   -2.2831117    5.6762672 
      50    1.6758903   -4.7955425            0   -2.2823355     5.670064 
      60    1.6739169   -4.7923637            0    -2.282116    5.6758801 
      70    1.6595381    -4.770298            0   -2.2816131    5.7542705 
      80    1.6573416   -4.7665176            0   -2.2811267    5.7779005 
      90    1.6489282   -4.7533658            0   -2.2805918    5.8271947 
     100    1.6458363   -4.7492704            0   -2.2811332    5.8691042 
     110    1.6494282   -4.7548249            0    -2.281301    5.8521418 
     120    1.6426119   -4.7448371            0   -2.2815353    5.8880227 
     130     1.650265   -4.7558559            0   -2.2810772    5.8559175 
     140    1.6385255   -4.7379068            0   -2.2807331    5.9352185 
     150    1.6324555   -4.7286791            0    -2.280608    5.9589514 
     160      1.62148   -4.7121888            0   -2.2805768    6.0065259 
     170    1.6493867   -4.7541473            0   -2.2806858    5.8495206 
     180    1.6468032   -4.7501978            0   -2.2806105     5.851225 
     190    1.6466982    -4.750453            0   -2.2810233    5.8260387 
     200    1.6630725   -4.7750988            0   -2.2811136    5.7364886 
     210    1.6534463   -4.7606776            0   -2.2811282    5.8177223 
     220    1.6539824    -4.762297            0   -2.2819436    5.8254048 
     230    1.6547093   -4.7634485            0   -2.2820051    5.8192995 
     240    1.6319532    -4.729196            0   -2.2818781    5.9353549 
     250    1.6275257   -4.7224992            0    -2.281821    5.9567365 
     260    1.6456441   -4.7491837            0   -2.2813347    5.8386831 
     270    1.6492069   -4.7542217            0   -2.2810298    5.7860365 
     280    1.6580023   -4.7677283            0   -2.2813465    5.7467991 
     290    1.6336331   -4.7312639            0   -2.2814269    5.9063382 
     300    1.6454234   -4.7497837            0   -2.2822656    5.8727761 
     310    1.6304298   -4.7270551            0   -2.2820218    5.9590197 
     320    1.6331811   -4.7307762            0    -2.281617    5.9423679 
     330    1.6421319   -4.7442346            0   -2.2816526    5.8746113 
     340    1.6520077   -4.7591062            0   -2.2817142    5.8024856 
     350    1.6512342   -4.7583046            0   -2.2820724    5.8088784 
     360    1.6420094   -4.7442441            0   -2.2818457    5.8697989 
     370    1.6385367   -4.7395183            0   -2.2823277    5.8958845 
     380    1.6536184   -4.7628246            0    -2.283017    5.7829597 
     390    1.6459419   -4.7512502            0   -2.2829546    5.8234745 
     400    1.6536854   -4.7627528            0   -2.2828448    5.8177852 
     410    1.6146606   -4.7032605            0   -2.2818751    6.0304259 
     420    1.6428858   -4.7460202            0   -2.2823076    5.8988527 
     430     1.622327   -4.7153082            0   -2.2824261    6.0016317 
     440    1.6515333   -4.7592041            0   -2.2825235    5.8247589 
     450    1.6258767   -4.7203075            0   -2.2821021    5.9521109 
     460    1.6497904    -4.756678            0   -2.2826111    5.8085064 
     470    1.6491436   -4.7558775            0   -2.2827805    5.8241367 
     480    1.6489292   -4.7553191            0   -2.2825436    5.8387127 
     490    1.6535526   -4.7622889            0   -2.2825801    5.8101226 
     500    1.6381567    -4.739199            0   -2.2825782    5.9221821 
     510     1.630771   -4.7279896            0   -2.2824447    5.9865676 
     520    1.6239945   -4.7180118            0    -2.282629    5.9887812 
     530    1.6626295   -4.7762575            0   -2.2829367    5.7107122 
     540    1.6563062   -4.7669132            0   -2.2830749    5.7373741 
     550    1.6539395   -4.7628611            0   -2.2825721    5.7827164 
     560    1.6300814   -4.7280489            0   -2.2835381    5.9403294 
     570    1.6575798      -4.7698            0   -2.2840519    5.7902351 
     580    1.6147913   -4.7049092            0   -2.2833278    6.0251694 
     590    1.6476822    -4.754831            0   -2.2839255    5.8310213 
     600    1.6462766   -4.7525275            0   -2.2837299    5.8365075 
     610    1.6646577   -4.7797481            0   -2.2833858    5.7369112 
     620    1.6304806   -4.7288907            0   -2.2837813     5.906821 
     630    1.6353055   -4.7361708            0   -2.2838257    5.9192638 
     640     1.621345   -4.7156587            0   -2.2842492    6.0040728 
     650    1.6446223   -4.7506614            0   -2.2843448    5.8693531 
     660    1.6160464   -4.7074939            0   -2.2840304    5.9963744 
     670     1.663687   -4.7790863            0   -2.2841796    5.7207994 
     680    1.6443894   -4.7500387            0   -2.2840712    5.8429084 
     690    1.6357109   -4.7367485            0   -2.2837956    5.9343453 
     700    1.6177062   -4.7100223            0   -2.2840696    6.0526788 
     710    1.6225271   -4.7171981            0   -2.2840158     6.024611 
     720    1.6195984   -4.7124627            0   -2.2836725    6.0147313 
     730    1.6460345    -4.752667            0   -2.2842326    5.8306685 
     740    1.6598302   -4.7738525            0   -2.2847297    5.7534895 
     750    1.6532371   -4.7641573            0   -2.2849217    5.8127758 
     760    1.6587859    -4.772267            0   -2.2847101    5.7603616 
     770    1.6662736   -4.7830476            0   -2.2842621    5.7142922 
     780    1.6469146   -4.7543869            0   -2.2846327    5.8329326 
     790    1.6396422   -4.7434398            0   -2.2845913     5.865479 
     800    1.6540561    -4.765304            0   -2.2848401    5.7860977 
     810    1.6402745   -4.7446187            0   -2.2848221    5.8761211 
     820    1.6589901   -4.7727306            0   -2.2848675    5.7433739 
     830    1.6236837   -4.7198331            0   -2.2849165    5.9382533 
     840    1.6261179   -4.7237341            0   -2.2851671    5.9419512 
     850    1.6598727   -4.7740326            0    -2.284846    5.7510176 
     860    1.6312751   -4.7316363            0   -2.2853354    5.9240413 
     870    1.6285614   -4.7276949            0   -2.2854636    5.9476364 
     880    1.6405273     -4.74599            0   -2.2858142    5.8593507 
     890    1.6371261   -4.7402635            0   -2.2851884    5.8655332 
     900    1.6161785   -4.7087676            0    -2.285106    5.9832586 
     910    1.6412697   -4.7457897            0   -2.2845006    5.8571415 
     920    1.6413579   -4.7463455            0   -2.2849242    5.8484947 
     930    1.6415133    -4.747093            0   -2.2854387    5.8325839 
     940    1.6388828   -4.7436736            0    -2.285964    5.8414608 
     950    1.6440019   -4.7512942            0   -2.2859078    5.8182361 
     960    1.6336038   -4.7362539            0   -2.2864608    5.8863364 
     970     1.643168   -4.7503192            0   -2.2861834    5.8258639 
     980     1.614058   -4.7064763            0   -2.2859945    5.9787792 
     990    1.6444585   -4.7526932            0   -2.2866221    5.8339173 
    1000    1.6547203   -4.7681016            0   -2.2866417    5.7734588 
Loop time of 6.03425 on 1 procs for 1000 steps with 4000 atoms

Performance: 71591.287 tau/day, 165.721 timesteps/s
100.0% CPU use with 1 MPI tasks x no OpenMP threads

MPI task timing breakdown:
Section |  min time  |  avg time  |  max time  |%varavg| %total
---------------------------------------------------------------
Pair    | 5.2715     | 5.2715     | 5.2715     |   0.0 | 87.36
Neigh   | 0.53472    | 0.53472    | 0.53472    |   0.0 |  8.86
Comm    | 0.10893    | 0.10893    | 0.10893    |   0.0 |  1.81
Output  | 0.0034583  | 0.0034583  | 0.0034583  |   0.0 |  0.06
Modify  | 0.10446    | 0.10446    | 0.10446    |   0.0 |  1.73
Other   |            | 0.01117    |            |       |  0.19

Nlocal:    4000 ave 4000 max 4000 min
Histogram: 1 0 0 0 0 0 0 0 0 0
Nghost:    5481 ave 5481 max 5481 min
Histogram: 1 0 0 0 0 0 0 0 0 0
Neighs:    151600 ave 151600 max 151600 min
Histogram: 1 0 0 0 0 0 0 0 0 0

Total # of neighbors = 151600
Ave neighs/atom = 37.9
Neighbor list builds = 50
Dangerous builds not checked
Total wall time: 0:00:06
