ITEM: TIMESTEP
0
ITEM: NUMBER OF ATOMS
160
ITEM: BOX BOUNDS pp pp pp
-4.0000000000000000e+01 4.0000000000000000e+01
-4.0000000000000000e+01 4.0000000000000000e+01
-4.0000000000000000e+01 4.0000000000000000e+01
ITEM: ATOMS id mass type x y z 
98 67 2 -39.7606 -32.9289 -38.5958 
99 15 3 -38.5677 -30.9368 -39.9535 
100 29 4 39.2864 -33.8146 -35.8472 
39 86.8 1 -16.156 -13.3535 -32.9216 
80 67 2 18.0709 -15.2414 -33.552 
81 15 3 18.8192 -17.5833 -32.461 
82 29 4 15.7137 -13.6906 -34.6859 
50 67 2 27.8684 -15.3072 -37.487 
51 15 3 27.0469 -13.204 -38.9485 
132 15 3 29.8991 -13.6806 -30.3279 
52 29 4 30.2465 -16.5196 -36.0303 
15 86.8 1 -10.805 -0.25449 -37.2088 
23 86.8 1 10.6912 6.56633 -39.6724 
60 15 3 -28.8016 18.875 -38.7411 
59 67 2 -31.0293 20.1598 -39.5295 
56 67 2 -28.4115 27.7147 -35.2537 
57 15 3 -27.6224 25.1594 -34.9669 
58 29 4 -28.6973 29.9993 -37.2402 
17 86.8 1 -5.49156 23.3027 -31.7598 
78 15 3 1.8091 22.1818 -39.0194 
26 86.8 1 -11.4076 33.0511 -30.9969 
4 86.8 1 -0.921555 31.4227 -38.5649 
34 86.8 1 10.3028 38.9862 -39.2581 
142 29 4 -32.2577 -39.7795 -20.6511 
9 86.8 1 29.0907 -33.235 -21.3637 
121 29 4 20.692 -32.2635 -20.7459 
119 67 2 19.5337 -29.4986 -21.2571 
120 15 3 20.001 -27.119 -22.4205 
20 86.8 1 28.7539 -12.8915 -27.5041 
131 67 2 27.232 -13.6428 -29.9816 
133 29 4 24.9466 -14.7501 -28.3089 
37 86.8 1 -26.977 37.0688 -25.3265 
27 86.8 1 -5.67109 -34.0726 -17.9854 
53 67 2 9.09742 -33.817 -10.2096 
55 29 4 6.61679 -34.2993 -11.9011 
36 86.8 1 -38.6043 -22.1061 -16.6375 
6 86.8 1 23.8607 -12.786 -14.7544 
31 86.8 1 -1.50903 -2.29971 -11.1654 
70 29 4 -4.69551 -0.787675 -18.2909 
68 67 2 -5.37584 1.57929 -16.5072 
69 15 3 -4.33667 3.64642 -15.1353 
3 86.8 1 -36.8171 14.2976 -19.4253 
104 67 2 -29.2217 14.6175 -10.0595 
105 15 3 -28.3787 13.5974 -12.4012 
140 67 2 -32.4112 37.8297 -18.7782 
141 15 3 -31.2414 36.6273 -16.6757 
149 67 2 -17.6286 35.2958 -14.2897 
150 15 3 -15.4892 36.9236 -14.2019 
151 29 4 -18.5117 32.3916 -14.4727 
115 29 4 18.4168 30.4831 -18.6517 
113 67 2 20.387 32.4428 -19.8866 
114 15 3 22.8335 33.5304 -19.6286 
54 15 3 11.5826 -34.6999 -9.68115 
145 29 4 -0.0290965 -28.3139 -2.0809 
143 67 2 0.715832 -25.3828 -1.76334 
144 15 3 2.43594 -23.4715 -2.55266 
122 67 2 38.6261 -22.7151 -5.47473 
123 15 3 39.652 -21.8436 -7.80341 
124 29 4 37.3554 -25.099 -4.07835 
125 67 2 -36.8296 -17.9695 -4.78929 
126 15 3 -35.1415 -16.0263 -5.56971 
127 29 4 -38.5432 -18.9685 -2.48434 
44 67 2 2.73372 -12.2714 -3.20626 
45 15 3 5.07382 -12.3746 -4.5284 
46 29 4 0.486709 -13.9528 -2.03528 
91 29 4 1.81825 -11.2423 -4.2634 
71 67 2 16.1497 -11.0825 -4.00909 
72 15 3 18.8343 -11.2316 -3.93576 
73 29 4 13.5794 -12.6292 -3.51032 
90 15 3 -1.37928 -7.40213 -6.44892 
89 67 2 0.730328 -9.01645 -6.02669 
116 67 2 -30.0062 8.29125 -4.63363 
118 29 4 -30.3442 5.44833 -5.65875 
18 86.8 1 -27.1548 9.41929 -9.98672 
117 15 3 -29.5393 9.77844 -2.44159 
7 86.8 1 22.1578 5.48786 -5.50354 
106 29 4 -30.6603 13.9657 -7.46092 
148 29 4 3.90088 11.1397 -1.50406 
108 15 3 -29.1279 22.6288 -0.531135 
2 86.8 1 7.29414 32.6479 -7.57523 
14 86.8 1 4.3055 -37.4315 9.39068 
32 86.8 1 22.9409 -32.624 9.22324 
38 86.8 1 16.9722 -28.6115 7.058 
1 86.8 1 -39.161 -19.1491 0.890539 
137 67 2 -13.9535 -12.2349 3.56335 
138 15 3 -12.8665 -10.3492 5.14355 
139 29 4 -14.1223 -15.2281 3.05391 
28 86.8 1 39.1683 -18.9824 2.40829 
10 86.8 1 -19.8872 -4.86895 7.63172 
16 86.8 1 -8.07335 -8.75822 0.604183 
29 86.8 1 -3.90748 7.0544 3.26793 
109 29 4 -33.1542 19.9149 1.95308 
146 67 2 1.9445 10.9902 0.819203 
147 15 3 1.48216 11.8133 3.33782 
107 67 2 -31.5893 21.9295 0.297933 
74 67 2 -16.0867 -30.8016 16.399 
76 29 4 -16.4474 -33.6371 17.4368 
101 67 2 -6.8918 -31.2178 15.883 
103 29 4 -6.23186 -34.1709 16.1843 
75 15 3 -14.4377 -28.6766 16.3867 
86 67 2 -4.41535 -25.7301 10.722 
87 15 3 -6.19312 -23.7315 10.4389 
88 29 4 -1.77661 -26.5191 12.0111 
102 15 3 -8.11597 -29.1262 17.0498 
30 86.8 1 -35.8338 -18.1154 14.9413 
5 86.8 1 -0.514897 -13.8698 11.0873 
11 86.8 1 26.393 -12.3701 14.9609 
92 67 2 -17.765 7.00213 12.3528 
93 15 3 -15.2213 7.6051 11.7198 
94 29 4 -19.5763 4.84404 13.4971 
155 67 2 -18.2647 6.44077 12.9538 
156 15 3 -19.4098 4.25586 11.8816 
157 29 4 -17.1443 9.19729 12.3263 
128 67 2 -32.7653 18.4811 15.581 
129 15 3 -35.3887 18.3981 16.1687 
66 15 3 -20.9616 11.0674 10.8534 
130 29 4 -29.9733 18.0151 16.6921 
65 67 2 -19.2047 11.3133 12.8751 
67 29 4 -17.1077 13.1354 14.112 
21 86.8 1 -21.1885 -35.1457 26.4985 
160 29 4 30.9204 -37.9912 28.7973 
8 86.8 1 -17.9652 -21.7039 22.7922 
62 67 2 -1.18749 -27.4951 29.6473 
63 15 3 -3.64463 -27.1462 28.6103 
134 67 2 9.77863 -26.6274 26.0619 
136 29 4 9.64481 -28.9427 24.0951 
135 15 3 11.0162 -25.7057 28.265 
110 67 2 35.6574 -27.8252 24.9217 
111 15 3 33.7768 -28.1313 23.0231 
112 29 4 36.5453 -26.0906 27.2561 
12 86.8 1 8.19587 -12.022 26.709 
42 15 3 -37.703 -3.17059 29.031 
152 67 2 19.1917 -0.0486527 22.6633 
153 15 3 19.3608 -2.72683 22.4801 
25 86.8 1 -16.831 1.22978 28.9206 
83 67 2 10.5597 9.819 24.814 
85 29 4 10.8643 6.9113 23.9775 
154 29 4 20.5515 2.56527 21.9111 
40 86.8 1 -33.0376 16.9085 21.8025 
84 15 3 11.8496 11.9336 25.8624 
24 86.8 1 25.9009 35.8006 20.0383 
158 67 2 31.8098 39.2725 27.813 
159 15 3 33.8224 37.4885 27.8526 
19 86.8 1 -6.79422 -30.4281 34.6635 
22 86.8 1 0.331293 -31.9656 34.3006 
64 29 4 0.514636 -29.3041 31.4017 
41 67 2 -38.1057 -3.11269 31.6898 
43 29 4 -39.7866 -4.24956 33.9546 
95 67 2 -1.49194 -2.96999 30.3131 
96 15 3 -3.43845 -1.12111 30.1472 
97 29 4 -0.739257 -5.65651 31.5228 
33 86.8 1 -24.9414 9.94055 30.8116 
13 86.8 1 18.8545 7.20409 39.2077 
61 29 4 -33.8408 19.7765 39.377 
77 67 2 2.68142 23.1159 38.6138 
79 29 4 4.49549 22.5237 36.2462 
47 67 2 -14.0457 34.5657 35.9556 
48 15 3 -14.3124 35.0711 33.3272 
49 29 4 -14.9319 35.4259 38.7344 
35 86.8 1 29.1662 36.7299 38.7815 
ITEM: TIMESTEP
43
ITEM: NUMBER OF ATOMS
160
ITEM: BOX BOUNDS pp pp pp
-4.0000000000000000e+01 4.0000000000000000e+01
-4.0000000000000000e+01 4.0000000000000000e+01
-4.0000000000000000e+01 4.0000000000000000e+01
ITEM: ATOMS id mass type x y z 
98 67 2 -39.7596 -32.928 -38.5985 
99 15 3 -38.5667 -30.9355 -39.9554 
100 29 4 39.2844 -33.8169 -35.8426 
39 86.8 1 -16.156 -13.3535 -32.9216 
80 67 2 18.0732 -15.2429 -33.5509 
81 15 3 18.8207 -17.585 -32.4599 
82 29 4 15.71 -13.6872 -34.6881 
50 67 2 27.8661 -15.306 -37.4884 
51 15 3 27.0454 -13.2024 -38.9499 
132 15 3 29.9027 -13.6791 -30.3233 
52 29 4 30.2503 -16.5223 -36.0274 
15 86.8 1 -10.805 -0.25449 -37.2088 
23 86.8 1 10.6912 6.56633 -39.6724 
60 15 3 -28.7993 18.8747 -38.7402 
59 67 2 -31.0265 20.1601 -39.5284 
56 67 2 -28.4112 27.7124 -35.2517 
57 15 3 -27.6219 25.1571 -34.9659 
58 29 4 -28.698 30.0038 -37.2432 
17 86.8 1 -5.49156 23.3027 -31.7598 
78 15 3 1.80784 22.1817 -39.0173 
26 86.8 1 -11.4076 33.051 -30.9969 
4 86.8 1 -0.921554 31.4227 -38.5649 
34 86.8 1 10.3028 38.9862 -39.2581 
142 29 4 -32.2581 -39.7755 -20.6548 
9 86.8 1 29.0907 -33.235 -21.3637 
121 29 4 20.6934 -32.2686 -20.7446 
119 67 2 19.5326 -29.4959 -21.2576 
120 15 3 20.0007 -27.1166 -22.4213 
20 86.8 1 28.7512 -12.8955 -27.517 
131 67 2 27.2357 -13.6382 -29.9772 
133 29 4 24.9419 -14.7522 -28.3051 
37 86.8 1 -26.977 37.0688 -25.3265 
27 86.8 1 -5.67109 -34.0726 -17.9854 
53 67 2 9.09988 -33.8166 -10.2079 
55 29 4 6.61202 -34.2995 -11.9038 
36 86.8 1 -38.6043 -22.1061 -16.6375 
6 86.8 1 23.8607 -12.786 -14.7544 
31 86.8 1 -1.50904 -2.29971 -11.1654 
70 29 4 -4.69503 -0.792078 -18.2942 
68 67 2 -5.37645 1.58163 -16.5054 
69 15 3 -4.33653 3.64846 -15.1339 
3 86.8 1 -36.8171 14.2976 -19.4253 
104 67 2 -29.2203 14.618 -10.0621 
105 15 3 -28.3776 13.597 -12.4034 
140 67 2 -32.4113 37.8273 -18.7763 
141 15 3 -31.2409 36.6256 -16.6739 
149 67 2 -17.6277 35.2986 -14.2895 
150 15 3 -15.4878 36.9257 -14.2018 
151 29 4 -18.514 32.3867 -14.473 
115 29 4 18.4127 30.4798 -18.65 
113 67 2 20.389 32.4447 -19.8878 
114 15 3 22.8355 33.5318 -19.6291 
54 15 3 11.5849 -34.7001 -9.6801 
145 29 4 -0.0309912 -28.3191 -2.08098 
143 67 2 0.716605 -25.3799 -1.76306 
144 15 3 2.43706 -23.4693 -2.55285 
122 67 2 38.6274 -22.7128 -5.47608 
123 15 3 39.6531 -21.842 -7.80504 
124 29 4 37.3531 -25.1028 -4.0752 
125 67 2 -36.8285 -17.9686 -4.79044 
126 15 3 -35.1404 -16.0256 -5.57091 
127 29 4 -38.5462 -18.9706 -2.47872 
44 67 2 2.49991 -12.1815 -3.58265 
45 15 3 5.01655 -12.1979 -4.52936 
46 29 4 0.432695 -13.8003 -2.03364 
91 29 4 1.94605 -11.3519 -4.0955 
71 67 2 16.1522 -11.081 -4.00957 
72 15 3 18.8367 -11.231 -3.93596 
73 29 4 13.5744 -12.6313 -3.50964 
90 15 3 -1.26729 -7.55417 -6.35031 
89 67 2 0.835635 -9.17393 -5.9175 
116 67 2 -30.0058 8.29406 -4.63262 
118 29 4 -30.3449 5.44355 -5.66131 
18 86.8 1 -27.155 9.41961 -9.98674 
117 15 3 -29.539 9.78051 -2.44017 
7 86.8 1 22.1578 5.48786 -5.50354 
106 29 4 -30.6627 13.9652 -7.45601 
148 29 4 3.90391 11.1395 -1.50861 
108 15 3 -29.126 22.6301 -0.532299 
2 86.8 1 7.29414 32.6479 -7.57523 
14 86.8 1 4.3055 -37.4315 9.39068 
32 86.8 1 22.9409 -32.6239 9.22324 
38 86.8 1 16.9722 -28.6115 7.05801 
1 86.8 1 -39.2131 -19.1437 0.935128 
137 67 2 -13.9533 -12.2319 3.56389 
138 15 3 -12.8659 -10.3469 5.14449 
139 29 4 -14.1231 -15.2333 3.05242 
28 86.8 1 39.221 -18.9877 2.36026 
10 86.8 1 -19.8872 -4.86895 7.63172 
16 86.8 1 -8.07338 -8.75824 0.604206 
29 86.8 1 -3.90745 7.05442 3.26793 
109 29 4 -33.1576 19.9117 1.95586 
146 67 2 1.9426 10.9901 0.82152 
147 15 3 1.481 11.8136 3.34006 
107 67 2 -31.5877 21.9315 0.296314 
74 67 2 -16.0862 -30.7988 16.398 
76 29 4 -16.4487 -33.6422 17.4383 
101 67 2 -6.89248 -31.2148 15.8827 
103 29 4 -6.23033 -34.1761 16.1842 
75 15 3 -14.4367 -28.6743 16.3862 
86 67 2 -4.41795 -25.7293 10.7208 
87 15 3 -6.19518 -23.7303 10.4381 
88 29 4 -1.77197 -26.5212 12.0131 
102 15 3 -8.11687 -29.1238 17.0502 
30 86.8 1 -35.8338 -18.1154 14.9413 
5 86.8 1 -0.514898 -13.8698 11.0873 
11 86.8 1 26.393 -12.3701 14.9609 
92 67 2 -17.7091 7.05603 12.3479 
93 15 3 -15.1792 7.69116 11.691 
94 29 4 -19.5558 4.76463 13.1444 
155 67 2 -18.292 6.44426 13.0908 
156 15 3 -19.5208 4.24459 12.1508 
157 29 4 -17.131 9.15236 12.3081 
128 67 2 -32.7681 18.4816 15.58 
129 15 3 -35.3912 18.3983 16.1685 
66 15 3 -20.963 11.0647 10.8529 
130 29 4 -29.968 18.0145 16.6935 
65 67 2 -19.2011 11.3068 12.8706 
67 29 4 -17.1034 13.1368 14.1154 
21 86.8 1 -21.1885 -35.1457 26.4985 
160 29 4 30.9181 -37.9864 28.7987 
8 86.8 1 -17.9652 -21.7039 22.7922 
62 67 2 -1.18911 -27.4938 29.6459 
63 15 3 -3.64632 -27.1452 28.6091 
134 67 2 9.77879 -26.6251 26.0639 
136 29 4 9.64403 -28.9465 24.0912 
135 15 3 11.0168 -25.7041 28.267 
110 67 2 35.6565 -27.8269 24.9194 
111 15 3 33.7755 -28.1322 23.0211 
112 29 4 36.5475 -26.0879 27.2604 
12 86.8 1 8.19587 -12.022 26.709 
42 15 3 -37.702 -3.17007 29.0287 
152 67 2 19.1904 -0.0512528 22.664 
153 15 3 19.3602 -2.72927 22.4804 
25 86.8 1 -16.831 1.22978 28.9206 
83 67 2 10.5594 9.82187 24.8148 
85 29 4 10.8641 6.9061 23.9758 
154 29 4 20.5533 2.57032 21.9101 
40 86.8 1 -33.0376 16.9086 21.8023 
84 15 3 11.85 11.936 25.8633 
24 86.8 1 25.9009 35.8006 20.0383 
158 67 2 31.8108 39.2699 27.8121 
159 15 3 33.8237 37.4864 27.8522 
19 86.8 1 -6.79418 -30.4281 34.6634 
22 86.8 1 0.331327 -31.9647 34.2996 
64 29 4 0.517882 -29.3074 31.4053 
41 67 2 -38.1041 -3.1116 31.6875 
43 29 4 -39.7892 -4.25117 33.9591 
95 67 2 -1.49273 -2.96734 30.312 
96 15 3 -3.43967 -1.119 30.1465 
97 29 4 -0.737241 -5.66126 31.5246 
33 86.8 1 -24.9414 9.94055 30.8116 
13 86.8 1 18.8545 7.20409 39.2077 
61 29 4 -33.8459 19.7765 39.3751 
77 67 2 2.67964 23.1164 38.6162 
79 29 4 4.49852 22.5233 36.2416 
47 67 2 -14.0449 34.5649 35.9528 
48 15 3 -14.3121 35.0709 33.3247 
49 29 4 -14.933 35.4269 38.7397 
35 86.8 1 29.1662 36.7299 38.7815 
ITEM: TIMESTEP
2000
ITEM: NUMBER OF ATOMS
160
ITEM: BOX BOUNDS pp pp pp
-4.0000000000000000e+01 4.0000000000000000e+01
-4.0000000000000000e+01 4.0000000000000000e+01
-4.0000000000000000e+01 4.0000000000000000e+01
ITEM: ATOMS id mass type x y z 
34 86.8 1 8.05347 -36.2448 -37.6497 
98 67 2 39.5853 -23.3704 -36.6354 
99 15 3 -39.0807 -21.6923 -34.9941 
100 29 4 39.3307 -24.3212 -39.5172 
39 86.8 1 -17.0383 -14.6504 -28.356 
80 67 2 15.6604 -15.8993 -37.1324 
81 15 3 17.9233 -16.2978 -35.7285 
82 29 4 12.7926 -16.8956 -37.5511 
51 15 3 31.7954 -11.0234 38.2914 
50 67 2 32.9337 -13.0304 39.6893 
132 15 3 27.0207 -14.8211 -32.1223 
52 29 4 34.3726 -15.7045 39.4455 
15 86.8 1 -15.7329 3.65586 -36.6465 
23 86.8 1 7.33167 4.56917 -36.1281 
13 86.8 1 20.4275 9.37511 -34.2193 
60 15 3 -34.8858 18.5049 37.2282 
59 67 2 -34.088 19.6538 39.516 
56 67 2 -28.1296 31.5359 -38.214 
57 15 3 -26.4312 32.6774 -39.984 
17 86.8 1 -4.18427 25.7279 -35.6514 
4 86.8 1 -10.6 27.6724 -33.9827 
58 29 4 -29.7872 32.0351 -35.7115 
26 86.8 1 -11.07 34.6694 -31.2786 
119 67 2 23.8984 -30.0943 -20.3355 
9 86.8 1 31.9043 -29.8983 -22.6417 
121 29 4 26.2937 -29.9684 -18.4475 
20 86.8 1 27.9116 -13.1843 -28.7971 
131 67 2 27.5776 -13.3056 -29.9717 
133 29 4 28.3827 -13.3775 -27.0196 
70 29 4 -5.64263 3.62138 -20.6669 
3 86.8 1 -36.0755 13.9888 -23.3037 
140 67 2 -35.7846 36.7326 -20.6243 
141 15 3 -33.6735 38.3458 -20.9429 
37 86.8 1 -25.6922 34.5844 -25.5759 
113 67 2 19.3401 28.6299 -22.3024 
114 15 3 18.5393 29.1295 -19.7944 
27 86.8 1 -3.53043 -31.9431 -18.8242 
53 67 2 5.59042 -38.493 -10.1242 
54 15 3 6.99365 -40.1115 -11.7545 
120 15 3 21.5421 -28.9667 -20.9351 
36 86.8 1 37.9228 -20.949 -13.0007 
6 86.8 1 22.7417 -10.7166 -17.2603 
31 86.8 1 -3.37057 -1.96366 -17.4381 
68 67 2 -4.15141 2.52068 -18.2385 
69 15 3 -2.26507 0.76911 -17.4454 
106 29 4 -30.865 15.8043 -14.7 
104 67 2 -29.5486 14.046 -12.65 
105 15 3 -27.2556 12.8053 -12.0601 
18 86.8 1 -26.3983 12.2921 -11.7301 
142 29 4 -37.4304 34.5225 -21.9305 
149 67 2 -13.6037 33.9556 -9.77213 
150 15 3 -13.842 31.3207 -10.2016 
151 29 4 -15.1555 36.5176 -9.17697 
115 29 4 20.9176 29.7416 -24.6709 
55 29 4 4.79409 -37.9875 -7.23245 
143 67 2 -0.665182 -21.7195 -3.76637 
144 15 3 -3.30468 -21.6056 -3.26571 
145 29 4 1.52686 -20.8434 -5.70495 
122 67 2 36.8159 -22.1801 1.70788 
123 15 3 34.2758 -22.6272 2.49929 
124 29 4 38.6553 -20.1894 0.324163 
125 67 2 -32.0484 -15.1466 -5.92858 
126 15 3 -33.1641 -15.4549 -3.49946 
127 29 4 -29.6007 -14.0907 -7.4107 
44 67 2 5.92188 -16.0355 -0.876397 
45 15 3 4.81839 -13.6924 -0.105495 
46 29 4 5.24728 -18.9142 -1.61418 
91 29 4 5.63236 -17.1334 -0.827897 
89 67 2 5.04167 -14.5884 0.698469 
71 67 2 15.0313 -11.0898 -1.98895 
73 29 4 17.9777 -11.8392 -1.98134 
90 15 3 3.23548 -13.2701 2.17397 
72 15 3 12.5304 -12.0472 -1.69466 
116 67 2 -27.3685 2.35444 -6.12199 
118 29 4 -26.9505 0.228173 -3.96187 
117 15 3 -26.2252 4.42901 -7.37929 
147 15 3 3.97507 11.085 1.26592 
7 86.8 1 24.4245 6.2168 -6.80515 
108 15 3 -32.3735 20.0132 -4.62558 
107 67 2 -30.6624 21.8389 -3.65295 
2 86.8 1 3.63324 32.5457 -10.668 
38 86.8 1 16.4842 -27.352 2.86785 
1 86.8 1 -38.2835 -19.4079 5.46577 
28 86.8 1 -36.6067 -19.3528 4.36747 
137 67 2 -18.0592 -11.5628 -0.148643 
138 15 3 -16.0086 -11.4903 -1.89551 
139 29 4 -18.844 -11.1035 2.76636 
16 86.8 1 -10.4278 -8.4103 0.998839 
92 67 2 -17.0079 5.92138 7.13464 
93 15 3 -14.9012 7.48942 7.52914 
94 29 4 -18.1184 3.71311 5.36273 
156 15 3 -17.7299 2.56127 5.36786 
157 29 4 -14.5548 6.41405 7.62993 
29 86.8 1 -0.573315 6.68413 -0.419213 
148 29 4 -1.21108 9.41801 1.17133 
146 67 2 1.83035 9.51049 0.992847 
109 29 4 -28.7787 24.112 -4.40855 
74 67 2 -11.2554 -29.9152 11.4796 
76 29 4 -14.0934 -30.7566 10.7562 
101 67 2 -5.02898 -30.7256 14.4837 
103 29 4 -3.30003 -32.9437 15.6284 
32 86.8 1 21.655 -32.5693 11.5968 
75 15 3 -8.90389 -29.0488 10.4715 
86 67 2 -5.25723 -25.73 14.8343 
87 15 3 -5.24481 -28.4033 15.1579 
88 29 4 -4.12532 -23.088 15.8704 
102 15 3 -6.39999 -28.513 15.0777 
30 86.8 1 -33.9698 -20.7052 19.446 
5 86.8 1 0.569718 -12.3569 12.9364 
11 86.8 1 26.8655 -11.2462 15.9011 
10 86.8 1 -26.2942 -7.68338 12.3537 
155 67 2 -16.9624 4.80604 6.62516 
128 67 2 -35.0471 17.2899 12.3343 
130 29 4 -37.4642 15.6916 11.3677 
66 15 3 -9.11539 13.3465 11.6335 
65 67 2 -11.2198 12.7963 10.0493 
67 29 4 -12.6516 10.5783 8.52066 
129 15 3 -32.3833 17.6151 12.0456 
14 86.8 1 2.15722 36.1631 13.3255 
24 86.8 1 25.006 38.0084 19.6526 
21 86.8 1 -15.394 -32.9524 29.4325 
63 15 3 -3.99246 -32.7946 29.3097 
8 86.8 1 -23.6123 -22.0074 23.4774 
62 67 2 -2.42502 -31.3267 27.6821 
134 67 2 8.3023 -26.1965 26.9058 
136 29 4 7.76603 -27.4266 29.6511 
64 29 4 -0.593685 -28.8856 27.5495 
135 15 3 7.14683 -25.3143 24.6456 
110 67 2 31.6667 -27.2335 22.9879 
111 15 3 32.7663 -24.9825 22.0241 
112 29 4 32.2087 -30.1535 23.666 
12 86.8 1 7.75111 -11.3465 26.3305 
97 29 4 -1.65275 -6.93638 30.7533 
85 29 4 9.43983 0.579481 26.1932 
84 15 3 10.4861 4.66173 29.6832 
152 67 2 17.1666 3.31255 20.9082 
83 67 2 9.23766 2.59863 28.474 
154 29 4 14.9018 1.26983 21.0745 
153 15 3 19.8103 3.66994 21.2504 
40 86.8 1 -31.7625 21.8208 23.2349 
158 67 2 29.7378 35.163 30.7338 
159 15 3 29.1498 37.1961 29.0876 
19 86.8 1 -7.86582 -30.0072 36.3634 
22 86.8 1 2.25588 -34.4191 39.4339 
42 15 3 -34.9005 0.638683 35.5415 
41 67 2 -37.2355 1.34273 34.4213 
95 67 2 -0.296047 -7.39426 33.4524 
96 15 3 2.08119 -7.73037 34.6717 
43 29 4 -39.4503 0.426067 32.5282 
25 86.8 1 -10.465 3.37077 31.8957 
33 86.8 1 -25.8111 10.2481 30.474 
61 29 4 -32.9494 19.1139 -37.7188 
78 15 3 -4.95309 24.7177 38.0549 
77 67 2 -3.14309 26.3331 36.8806 
79 29 4 -0.656553 27.9959 37.3512 
47 67 2 -11.0146 27.6279 34.4355 
48 15 3 -8.83315 28.5506 35.7181 
49 29 4 -14.0018 27.061 34.7267 
35 86.8 1 30.0887 38.5496 -39.5451 
160 29 4 31.4298 34.3311 33.1424 
ITEM: TIMESTEP
4000
ITEM: NUMBER OF ATOMS
160
ITEM: BOX BOUNDS pp pp pp
-4.0000000000000000e+01 4.0000000000000000e+01
-4.0000000000000000e+01 4.0000000000000000e+01
-4.0000000000000000e+01 4.0000000000000000e+01
ITEM: ATOMS id mass type x y z 
34 86.8 1 5.69203 -31.446 -36.0434 
22 86.8 1 4.2868 -36.8662 -35.3392 
100 29 4 -38.8141 -12.1535 -36.6888 
80 67 2 12.8637 -16.8119 39.2897 
81 15 3 14.7244 -14.9638 39.8855 
82 29 4 11.8306 -19.5927 -40.0254 
132 15 3 29.0102 -10.9708 -29.5736 
99 15 3 37.0794 -15.7522 -36.895 
98 67 2 38.8728 -13.9971 -35.9385 
15 86.8 1 -20.7309 7.62194 -36.0764 
23 86.8 1 3.9245 2.54357 -32.5334 
60 15 3 -37.7153 17.6258 -38.023 
13 86.8 1 22.0228 11.577 -27.5527 
4 86.8 1 -20.397 23.8495 -29.3311 
17 86.8 1 -2.8807 28.2116 -39.628 
56 67 2 -28.494 36.1571 39.8369 
58 29 4 -26.8856 33.5928 -39.7718 
26 86.8 1 -10.7268 36.3069 -31.5664 
35 86.8 1 31.0247 -39.6059 -37.8517 
121 29 4 29.887 -27.7242 -18.4232 
9 86.8 1 34.7456 -26.5136 -23.9309 
39 86.8 1 -17.9332 -15.9658 -23.7253 
20 86.8 1 28.5645 -13.1417 -29.1098 
131 67 2 27.7066 -13.3209 -29.8681 
133 29 4 25.3325 -14.7674 -31.1751 
69 15 3 -3.05278 0.70905 -20.544 
68 67 2 -4.4373 1.68207 -22.6574 
3 86.8 1 -35.3228 13.6756 -27.2365 
113 67 2 18.6981 26.1028 -25.9802 
115 29 4 20.269 25.4122 -23.4625 
114 15 3 18.4635 25.5922 -28.6166 
140 67 2 39.7953 34.5626 -23.2081 
141 15 3 39.3285 36.1346 -25.349 
142 29 4 -38.0208 33.2322 -21.549 
37 86.8 1 -24.3906 32.065 -25.8283 
27 86.8 1 -1.35913 -29.7833 -19.6749 
119 67 2 28.4966 -30.4366 -18.4076 
120 15 3 26.4521 -31.8543 -19.4444 
36 86.8 1 34.4005 -19.7753 -9.31146 
6 86.8 1 21.6069 -8.61777 -19.8024 
70 29 4 -5.85132 0.874249 -25.2554 
31 86.8 1 -3.83101 1.67868 -20.8868 
106 29 4 -24.5257 13.6936 -16.5887 
104 67 2 -26.9476 15.1504 -15.5262 
105 15 3 -28.9833 15.1277 -13.7768 
18 86.8 1 -29.5888 14.6906 -14.7606 
54 15 3 1.26203 39.3656 -9.82125 
2 86.8 1 -0.0775775 32.4507 -13.8033 
144 15 3 -0.777307 -19.4639 -7.9423 
46 29 4 8.88606 -19.6174 0.556187 
127 29 4 -28.0491 -12.9084 -6.66285 
125 67 2 -25.4609 -11.6296 -7.6434 
126 15 3 -24.2713 -10.4734 -9.75998 
138 15 3 -24.1537 -12.2928 -3.48032 
137 67 2 -22.6545 -10.1959 -2.71892 
143 67 2 -1.16572 -17.1119 -6.69407 
145 29 4 -3.20159 -15.3979 -5.20771 
71 67 2 15.4478 -11.6322 -0.248173 
72 15 3 17.8182 -10.5947 -0.973561 
116 67 2 -24.5015 -3.90259 -7.19618 
118 29 4 -23.4484 -2.52907 -4.68982 
117 15 3 -23.8258 -4.82344 -9.63609 
29 86.8 1 3.05887 7.99108 -0.974371 
148 29 4 1.9524 8.4395 -1.60168 
7 86.8 1 26.7235 6.95613 -8.1253 
108 15 3 -27.7185 25.543 -8.58198 
107 67 2 -29.2169 23.3197 -8.3404 
109 29 4 -29.6187 20.4889 -9.40008 
150 15 3 -12.7655 35.6281 -4.37028 
149 67 2 -10.9855 33.6652 -4.86295 
151 29 4 -8.06196 33.0631 -5.47967 
53 67 2 1.80571 36.9609 -8.74942 
55 29 4 4.0188 35.2237 -7.56799 
1 86.8 1 -33.975 -19.7493 7.48108 
76 29 4 -9.11448 -27.0372 5.36002 
74 67 2 -6.90168 -29.1293 5.52176 
75 15 3 -5.08169 -30.2339 7.15619 
38 86.8 1 15.9893 -26.0744 -1.38149 
122 67 2 35.9226 -20.3342 8.17035 
123 15 3 38.1875 -18.8989 8.00844 
28 86.8 1 -35.7963 -19.6834 8.91636 
44 67 2 9.90475 -20.4221 3.32783 
91 29 4 10.6735 -21.0385 3.68737 
45 15 3 9.12603 -21.1828 5.77082 
89 67 2 8.1663 -20.5039 5.36128 
90 15 3 5.87408 -21.6082 6.23783 
124 29 4 33.1397 -20.4513 9.4186 
139 29 4 -20.0634 -8.68385 -3.2594 
16 86.8 1 -12.8467 -8.06809 1.39785 
73 29 4 12.7797 -11.0003 1.0921 
92 67 2 -14.8118 4.08476 0.939033 
93 15 3 -14.8792 5.93873 2.85304 
94 29 4 -15.1639 1.1117 0.379623 
156 15 3 -16.0852 1.65213 0.049366 
157 29 4 -15.1667 6.64837 2.00749 
155 67 2 -15.6507 4.32943 0.11796 
146 67 2 -0.376459 6.80962 -0.577007 
66 15 3 -6.61379 11.301 5.46515 
147 15 3 -1.76295 4.49436 -0.845706 
129 15 3 -39.5576 13.1184 6.70039 
65 67 2 -4.08845 11.8671 6.19719 
67 29 4 -2.37465 13.521 8.10116 
103 29 4 -5.25427 -29.8309 14.1672 
32 86.8 1 20.3505 -32.5136 14.0039 
101 67 2 -4.43921 -27.9411 16.3923 
86 67 2 -4.22506 -26.8177 17.1769 
87 15 3 -1.86824 -25.5989 17.5538 
88 29 4 -5.58183 -29.2567 15.9 
102 15 3 -2.72178 -25.9888 17.0181 
5 86.8 1 1.66991 -10.8229 14.8114 
11 86.8 1 27.3448 -10.1062 16.8546 
10 86.8 1 -32.7922 -10.5377 17.1427 
154 29 4 16.6499 4.63525 19.1513 
153 15 3 11.2839 5.1859 19.9584 
128 67 2 -38.794 15.2648 8.12273 
130 29 4 -36.4606 17.1374 8.70376 
14 86.8 1 -0.0218369 29.6666 17.3165 
24 86.8 1 24.0991 -39.7522 19.2626 
63 15 3 -1.27332 -34.3989 27.9454 
62 67 2 -2.81487 -34.2214 25.7512 
64 29 4 -5.29423 -32.8846 24.5898 
30 86.8 1 -32.0491 -23.3264 24.0202 
8 86.8 1 -29.37 -22.3208 24.1667 
134 67 2 5.81166 -25.6874 29.2906 
136 29 4 8.1477 -25.3625 27.3593 
135 15 3 3.19026 -26.2732 29.4726 
112 29 4 26.1121 -27.3358 19.4737 
110 67 2 28.5259 -28.3235 21.055 
111 15 3 30.9743 -27.6525 21.9517 
12 86.8 1 7.29908 -10.6594 25.9482 
85 29 4 8.22912 -5.52167 28.9554 
83 67 2 7.97503 -4.82815 31.9135 
152 67 2 13.8771 5.81104 19.6113 
40 86.8 1 -30.4696 26.8028 24.6841 
21 86.8 1 -9.5147 -30.7272 32.4103 
19 86.8 1 -8.95017 -29.5817 38.0799 
96 15 3 1.64549 -12.5382 32.6194 
50 67 2 38.1828 -11.0682 36.3163 
52 29 4 38.3851 -13.8985 35.1964 
97 29 4 0.833742 -10.9689 37.7843 
84 15 3 8.34348 -2.89459 33.7422 
95 67 2 0.79291 -11.123 34.7408 
51 15 3 36.4733 -9.18952 37.1902 
42 15 3 -38.3249 4.0969 38.1987 
41 67 2 -36.8484 5.70502 36.6228 
43 29 4 -34.7241 5.73894 34.4389 
25 86.8 1 -4.00812 5.54216 34.9134 
61 29 4 -35.1097 18.8822 37.3349 
59 67 2 -36.612 19.0644 -40.0146 
33 86.8 1 -26.6934 10.56 30.1318 
47 67 2 -7.87055 24.7587 34.3836 
49 29 4 -5.35792 26.3904 35.0352 
78 15 3 -7.30378 23.5345 34.8372 
77 67 2 -9.50853 24.952 34.2833 
79 29 4 -11.324 27.2362 35.2207 
48 15 3 -10.404 24.91 33.4802 
57 15 3 -30.0681 37.948 -38.9339 
159 15 3 29.8131 32.1922 36.3549 
158 67 2 28.8297 30.8361 34.2443 
160 29 4 26.3909 29.3526 33.1808 
ITEM: TIMESTEP
6000
ITEM: NUMBER OF ATOMS
160
ITEM: BOX BOUNDS pp pp pp
-4.0000000000000000e+01 4.0000000000000000e+01
-4.0000000000000000e+01 4.0000000000000000e+01
-4.0000000000000000e+01 4.0000000000000000e+01
ITEM: ATOMS id mass type x y z 
22 86.8 1 6.34534 -39.157 -30.2486 
35 86.8 1 31.9332 -37.8162 -36.2088 
34 86.8 1 3.31256 -26.8722 -34.5012 
132 15 3 25.7559 -14.8865 -32.005 
20 86.8 1 28.3418 -13.3374 -29.9416 
100 29 4 37.9694 -5.21735 -33.1265 
99 15 3 38.7127 -3.84972 -38.3667 
98 67 2 39.1436 -4.14891 -35.734 
15 86.8 1 -25.5826 11.4718 -35.5231 
23 86.8 1 0.614841 0.577442 -29.0423 
61 29 4 38.7923 18.0856 -40.0385 
57 15 3 -28.9479 37.1745 39.803 
26 86.8 1 -10.3936 37.8961 -31.8459 
27 86.8 1 0.748592 -27.6868 -20.5005 
9 86.8 1 37.4968 -23.2301 -25.1763 
39 86.8 1 -18.8019 -17.2425 -19.2303 
133 29 4 28.0405 -11.106 -28.8681 
131 67 2 27.6502 -13.4839 -30.7304 
69 15 3 -5.49641 1.78226 -26.5613 
6 86.8 1 20.5059 -6.58078 -22.2708 
68 67 2 -4.17398 3.65044 -25.2056 
70 29 4 -2.8003 4.33666 -22.5343 
31 86.8 1 -5.49 0.823173 -27.4574 
3 86.8 1 -34.5919 13.3719 -31.0542 
13 86.8 1 23.5712 13.7146 -21.0814 
4 86.8 1 -29.9071 20.1395 -24.8151 
113 67 2 18.9944 22.7346 -28.4152 
114 15 3 20.2745 24.8061 -27.2633 
115 29 4 16.5405 21.9539 -30.0411 
141 15 3 34.577 30.3776 -24.6862 
37 86.8 1 -23.1272 29.6183 -26.0738 
142 29 4 37.6292 34.7652 -25.845 
140 67 2 36.6827 32.0588 -24.8025 
121 29 4 31.4689 -28.0671 -18.3204 
119 67 2 33.2002 -30.1093 -16.8625 
120 15 3 33.8708 -32.7157 -16.7283 
126 15 3 -24.3299 -6.7257 -7.56163 
106 29 4 -26.8063 15.3728 -15.0895 
104 67 2 -27.0906 15.8878 -18.0512 
105 15 3 -28.7919 16.2664 -20.0869 
18 86.8 1 -28.1325 16.2373 -18.2109 
108 15 3 -27.2392 21.4801 -15.2836 
107 67 2 -28.1929 23.1558 -13.4043 
2 86.8 1 -3.67387 32.371 -16.8341 
38 86.8 1 15.5064 -24.8317 -5.5042 
127 29 4 -21.4791 -11.4261 -7.28035 
143 67 2 -2.92248 -12.1192 -8.84364 
145 29 4 -3.34193 -15.1009 -8.3808 
144 15 3 -1.22832 -10.0596 -8.4894 
36 86.8 1 30.9813 -18.6361 -5.73044 
125 67 2 -22.4251 -8.63387 -7.99637 
138 15 3 -26.6322 -9.21137 -7.1149 
137 67 2 -24.2567 -8.05554 -7.63714 
116 67 2 -21.2744 -9.536 -7.93097 
118 29 4 -23.3154 -7.2369 -7.78715 
117 15 3 -20.9099 -12.2799 -7.7903 
139 29 4 -21.5113 -8.78197 -8.79094 
156 15 3 -12.0055 0.557939 -5.29242 
92 67 2 -14.0774 3.02434 -4.29838 
93 15 3 -15.8611 5.07779 -4.24998 
94 29 4 -12.7506 0.979814 -6.07713 
157 29 4 -15.6795 4.64538 -5.28046 
155 67 2 -13.144 2.98054 -4.86665 
146 67 2 3.72493 7.16532 -3.16216 
147 15 3 6.16515 7.09716 -4.25157 
148 29 4 1.53217 5.56552 -1.72668 
7 86.8 1 28.9552 7.67379 -9.40679 
109 29 4 -27.4668 25.511 -11.6064 
150 15 3 -4.04235 33.9025 -0.628877 
149 67 2 -6.72488 33.766 -0.406069 
151 29 4 -9.11112 31.8821 -0.191317 
54 15 3 -0.124817 33.6319 -4.99167 
53 67 2 -0.631662 32.8536 -7.51529 
55 29 4 -1.77673 30.5922 -9.22098 
75 15 3 -3.7258 -30.3526 0.239345 
28 86.8 1 -31.5073 -19.9288 10.9514 
76 29 4 -2.73002 -25.0175 -0.198118 
74 67 2 -2.78819 -27.9006 0.791165 
45 15 3 10.5974 -25.9772 7.85806 
89 67 2 11.6876 -26.2073 8.04768 
90 15 3 11.2331 -28.5869 6.90792 
44 67 2 12.9846 -24.6988 7.82411 
91 29 4 13.5949 -23.8204 8.03792 
46 29 4 15.0414 -23.201 9.52964 
71 67 2 14.3163 -11.2516 2.30394 
73 29 4 16.8342 -12.0856 0.786066 
16 86.8 1 -15.1988 -7.73457 1.78313 
72 15 3 12.1918 -9.60587 2.24998 
29 86.8 1 0.589252 6.09122 -1.26177 
130 29 4 38.3876 11.5511 4.02445 
66 15 3 5.79222 13.2812 4.17052 
65 67 2 3.30542 12.3068 3.85791 
67 29 4 1.35984 11.078 1.85829 
129 15 3 39.2101 16.7021 5.59846 
128 67 2 38.9372 14.5449 4.02572 
32 86.8 1 19.0872 -32.4595 16.3429 
24 86.8 1 23.2184 -37.5755 18.8832 
111 15 3 24.1131 -31.1505 17.8976 
103 29 4 -4.50903 -26.6899 16.1256 
101 67 2 -2.99766 -28.1611 18.3206 
86 67 2 -4.19823 -26.7071 17.2115 
87 15 3 -1.78658 -27.644 17.9404 
88 29 4 -7.05492 -26.1326 18.155 
102 15 3 -0.609141 -28.8479 19.3492 
112 29 4 24.7523 -26.1359 19.9904 
110 67 2 24.6477 -28.5173 18.0833 
124 29 4 36.617 -19.2333 15.3376 
1 86.8 1 -33.3311 -20.161 11.8157 
10 86.8 1 -39.0998 -13.3089 21.7912 
5 86.8 1 2.73811 -9.33406 16.6314 
122 67 2 33.7021 -18.32 15.3529 
123 15 3 31.1631 -19.0902 14.9341 
11 86.8 1 27.8101 -8.99983 17.7801 
154 29 4 9.91164 9.79216 17.9194 
153 15 3 12.696 5.13482 18.396 
152 67 2 12.1653 7.75876 18.1472 
14 86.8 1 -2.13707 23.3604 21.1906 
63 15 3 -3.11337 -34.0737 23.4132 
62 67 2 -3.99457 -36.6075 23.285 
64 29 4 -5.68774 -38.6886 24.7221 
30 86.8 1 -30.3555 -26.6672 28.9401 
8 86.8 1 -34.7884 -21.8285 24.356 
134 67 2 4.1218 -24.4691 30.4137 
136 29 4 3.26396 -27.2419 29.4935 
12 86.8 1 6.86656 -9.96588 25.6209 
33 86.8 1 -27.5506 10.8625 29.8001 
40 86.8 1 -29.2146 31.6389 26.0909 
21 86.8 1 -3.80953 -28.5626 35.3323 
19 86.8 1 -9.99863 -29.174 39.7125 
135 15 3 6.23943 -22.9379 31.0535 
82 29 4 11.7173 -20.3602 37.2409 
50 67 2 -37.4172 -9.20691 33.1211 
52 29 4 -36.8749 -11.4999 31.1829 
96 15 3 1.08148 -12.8512 39.1929 
97 29 4 2.53848 -17.5123 36.7676 
95 67 2 2.21348 -14.5665 37.4616 
80 67 2 10.1168 -18.0904 36.0104 
81 15 3 10.1485 -15.4751 35.3939 
51 15 3 -37.4828 -8.52113 35.7162 
85 29 4 7.17194 -11.6272 32.0872 
83 67 2 6.80142 -11.8891 35.0998 
84 15 3 5.68094 -10.7726 37.2694 
42 15 3 -36.9996 9.18237 35.8597 
41 67 2 -35.9407 10.1075 38.1556 
43 29 4 -33.7686 9.61897 -39.767 
25 86.8 1 2.25964 7.64981 37.8426 
60 15 3 -36.0057 17.4104 38.3763 
59 67 2 -38.3274 18.5947 39.0641 
47 67 2 -9.39308 21.8455 32.7631 
49 29 4 -9.94426 19.1857 31.3848 
78 15 3 -9.89339 22.9644 32.5134 
17 86.8 1 -1.63295 30.6187 36.4898 
79 29 4 -10.1267 28.0543 34.539 
48 15 3 -10.3029 24.3016 33.2312 
77 67 2 -10.7689 25.1236 33.861 
160 29 4 26.075 28.516 38.1469 
159 15 3 28.2015 23.9825 35.9752 
158 67 2 26.4731 25.6577 37.184 
58 29 4 -27.6165 -39.2045 35.9416 
56 67 2 -28.3533 39.4982 38.6056 
ITEM: TIMESTEP
8000
ITEM: NUMBER OF ATOMS
160
ITEM: BOX BOUNDS pp pp pp
-4.0000000000000000e+01 4.0000000000000000e+01
-4.0000000000000000e+01 4.0000000000000000e+01
-4.0000000000000000e+01 4.0000000000000000e+01
ITEM: ATOMS id mass type x y z 
35 86.8 1 32.8015 -36.1059 -34.6384 
19 86.8 1 -10.9923 -28.7848 -38.7406 
34 86.8 1 1.03845 -22.5012 -33.0284 
132 15 3 26.1955 -12.4443 -29.0334 
20 86.8 1 28.0186 -12.9703 -29.6712 
131 67 2 27.8366 -13.356 -30.98 
133 29 4 28.5691 -13.1172 -33.9178 
100 29 4 37.2558 2.68904 -35.9549 
99 15 3 39.885 5.86217 -32.3505 
98 67 2 38.4722 5.0826 -34.515 