LAMMPS data file via write_data, version 16 Mar 2018, timestep = 0

4 atoms
4 atom types
2 bonds
2 bond types
1 angles
1 angle types

-4.0000000000000000e+01 4.0000000000000000e+01 xlo xhi
-4.0000000000000000e+01 4.0000000000000000e+01 ylo yhi
-4.0000000000000000e+01 4.0000000000000000e+01 zlo zhi

Masses

1 86.8
2 67
3 15
4 29

PairIJ Coeffs # nm/cut

1 1 2.55776 5.77468 10.1779 12 30
1 2 3.34766 6.26893 10.1779 12 30
1 3 2.00557 4.28155 10.1779 12 30
1 4 2.80928 6.79832 10.1779 12 30
2 2 4.3815 6.80547 10.1779 12 30
2 3 2.62494 4.648 10.1779 12 30
2 4 3.67685 7.38018 10.1779 12 30
3 3 1.57259 3.17449 10.1779 12 30
3 4 2.20278 5.04051 10.1779 12 30
4 4 3.08553 8.00342 10.1779 12 30

Bond Coeffs # harmonic

1 200 2.68975
2 200 3.04931

Angle Coeffs # harmonic

1 200 144.187

Atoms # full

1 0 1 -1.0000000000000000e+00 1.0000000000000000e+01 0.0000000000000000e+00 0.0000000000000000e+00 0 0 0
2 0 2 4.0867500000000001e-01 0.0000000000000000e+00 0.0000000000000000e+00 0.0000000000000000e+00 0 0 0
3 0 3 3.1750499999999998e-01 0.0000000000000000e+00 2.6897486800000001e+00 3.5763057400000003e-17 0 0 0
4 0 4 2.7382000000000001e-01 1.7793842799999999e+00 -2.4659843800000001e+00 0.0000000000000000e+00 0 0 0

Velocities

1 0.0000000000000000e+00 0.0000000000000000e+00 0.0000000000000000e+00
2 0.0000000000000000e+00 0.0000000000000000e+00 0.0000000000000000e+00
3 0.0000000000000000e+00 0.0000000000000000e+00 0.0000000000000000e+00
4 0.0000000000000000e+00 0.0000000000000000e+00 0.0000000000000000e+00

Bonds

1 1 2 3
2 2 2 4

Angles

1 1 3 2 4
