ITEM: TIMESTEP
0
ITEM: NUMBER OF ATOMS
80
ITEM: BOX BOUNDS pp pp pp
-4.0000000000000000e+01 4.0000000000000000e+01
-4.0000000000000000e+01 4.0000000000000000e+01
-4.0000000000000000e+01 4.0000000000000000e+01
ITEM: ATOMS id mass type x y z 
78 67 2 -39.7606 -32.9289 -38.5958 
79 15 3 -38.5677 -30.9368 -39.9535 
80 29 4 39.2864 -33.8146 -35.8472 
60 67 2 18.0709 -15.2414 -33.552 
61 15 3 18.8192 -17.5833 -32.461 
62 29 4 15.7137 -13.6906 -34.6859 
30 67 2 27.8684 -15.3072 -37.487 
31 15 3 27.0469 -13.204 -38.9485 
32 29 4 30.2465 -16.5196 -36.0303 
15 86.8 1 -10.805 -0.25449 -37.2088 
40 15 3 -28.8016 18.875 -38.7411 
39 67 2 -31.0293 20.1598 -39.5295 
36 67 2 -28.4115 27.7147 -35.2537 
37 15 3 -27.6224 25.1594 -34.9669 
38 29 4 -28.6973 29.9993 -37.2402 
17 86.8 1 -5.49156 23.3027 -31.7598 
58 15 3 1.8091 22.1818 -39.0194 
4 86.8 1 -0.921555 31.4227 -38.5649 
9 86.8 1 29.0907 -33.235 -21.3637 
20 86.8 1 28.7539 -12.8915 -27.5041 
33 67 2 9.09742 -33.817 -10.2096 
35 29 4 6.61679 -34.2993 -11.9011 
6 86.8 1 23.8607 -12.786 -14.7544 
50 29 4 -4.69551 -0.787675 -18.2909 
48 67 2 -5.37584 1.57929 -16.5072 
49 15 3 -4.33667 3.64642 -15.1353 
3 86.8 1 -36.8171 14.2976 -19.4253 
34 15 3 11.5826 -34.6999 -9.68115 
24 67 2 2.73372 -12.2714 -3.20626 
25 15 3 5.07382 -12.3746 -4.5284 
26 29 4 0.486709 -13.9528 -2.03528 
71 29 4 1.81825 -11.2423 -4.2634 
51 67 2 16.1497 -11.0825 -4.00909 
52 15 3 18.8343 -11.2316 -3.93576 
53 29 4 13.5794 -12.6292 -3.51032 
70 15 3 -1.37928 -7.40213 -6.44892 
69 67 2 0.730328 -9.01645 -6.02669 
18 86.8 1 -27.1548 9.41929 -9.98672 
7 86.8 1 22.1578 5.48786 -5.50354 
2 86.8 1 7.29414 32.6479 -7.57523 
14 86.8 1 4.3055 -37.4315 9.39068 
1 86.8 1 -39.161 -19.1491 0.890539 
10 86.8 1 -19.8872 -4.86895 7.63172 
16 86.8 1 -8.07335 -8.75822 0.604183 
54 67 2 -16.0867 -30.8016 16.399 
56 29 4 -16.4474 -33.6371 17.4368 
55 15 3 -14.4377 -28.6766 16.3867 
66 67 2 -4.41535 -25.7301 10.722 
67 15 3 -6.19312 -23.7315 10.4389 
68 29 4 -1.77661 -26.5191 12.0111 
5 86.8 1 -0.514897 -13.8698 11.0873 
11 86.8 1 26.393 -12.3701 14.9609 
72 67 2 -17.765 7.00213 12.3528 
73 15 3 -15.2213 7.6051 11.7198 
74 29 4 -19.5763 4.84404 13.4971 
46 15 3 -20.9616 11.0674 10.8534 
45 67 2 -19.2047 11.3133 12.8751 
47 29 4 -17.1077 13.1354 14.112 
8 86.8 1 -17.9652 -21.7039 22.7922 
42 67 2 -1.18749 -27.4951 29.6473 
43 15 3 -3.64463 -27.1462 28.6103 
12 86.8 1 8.19587 -12.022 26.709 
22 15 3 -37.703 -3.17059 29.031 
63 67 2 10.5597 9.819 24.814 
65 29 4 10.8643 6.9113 23.9775 
64 15 3 11.8496 11.9336 25.8624 
19 86.8 1 -6.79422 -30.4281 34.6635 
44 29 4 0.514636 -29.3041 31.4017 
21 67 2 -38.1057 -3.11269 31.6898 
23 29 4 -39.7866 -4.24956 33.9546 
75 67 2 -1.49194 -2.96999 30.3131 
76 15 3 -3.43845 -1.12111 30.1472 
77 29 4 -0.739257 -5.65651 31.5228 
13 86.8 1 18.8545 7.20409 39.2077 
41 29 4 -33.8408 19.7765 39.377 
57 67 2 2.68142 23.1159 38.6138 
59 29 4 4.49549 22.5237 36.2462 
27 67 2 -14.0457 34.5657 35.9556 
28 15 3 -14.3124 35.0711 33.3272 
29 29 4 -14.9319 35.4259 38.7344 
ITEM: TIMESTEP
4
ITEM: NUMBER OF ATOMS
80
ITEM: BOX BOUNDS pp pp pp
-4.0000000000000000e+01 4.0000000000000000e+01
-4.0000000000000000e+01 4.0000000000000000e+01
-4.0000000000000000e+01 4.0000000000000000e+01
ITEM: ATOMS id mass type x y z 
78 67 2 -39.7597 -32.9278 -38.5984 
79 15 3 -38.5668 -30.9355 -39.9554 
80 29 4 39.2843 -33.8169 -35.8424 
60 67 2 18.0732 -15.243 -33.5506 
61 15 3 18.8208 -17.585 -32.4597 
62 29 4 15.7099 -13.687 -34.6881 
30 67 2 27.8663 -15.3057 -37.4882 
31 15 3 27.0454 -13.2024 -38.9498 
32 29 4 30.2505 -16.5224 -36.027 
15 86.8 1 -10.8049 -0.254445 -37.2091 
40 15 3 -28.7993 18.8743 -38.7402 
39 67 2 -31.0266 20.1596 -39.5284 
36 67 2 -28.4111 27.7125 -35.2515 
37 15 3 -27.6218 25.1574 -34.9653 
38 29 4 -28.6981 30.0041 -37.2431 
17 86.8 1 -5.49174 23.3023 -31.7602 
58 15 3 1.80758 22.1821 -39.0169 
4 86.8 1 -0.92146 31.4224 -38.5658 
9 86.8 1 29.0907 -33.2351 -21.3641 
20 86.8 1 28.7536 -12.8919 -27.5058 
33 67 2 9.10006 -33.8169 -10.2079 
35 29 4 6.61192 -34.2997 -11.9038 
6 86.8 1 23.8599 -12.7861 -14.754 
50 29 4 -4.69517 -0.792116 -18.2943 
48 67 2 -5.37643 1.58185 -16.5054 
49 15 3 -4.33668 3.64863 -15.1339 
3 86.8 1 -36.8172 14.298 -19.4259 
34 15 3 11.585 -34.7002 -9.68001 
24 67 2 2.7346 -12.269 -3.20904 
25 15 3 5.07555 -12.3735 -4.52922 
26 29 4 0.481982 -13.9547 -2.03267 
71 29 4 1.82169 -11.2471 -4.25943 
51 67 2 16.1529 -11.081 -4.0096 
52 15 3 18.8372 -11.2308 -3.93611 
53 29 4 13.5747 -12.6313 -3.50962 
70 15 3 -1.38079 -7.40055 -6.4496 
69 67 2 0.728963 -9.01475 -6.02762 
18 86.8 1 -27.1543 9.41933 -9.98643 
7 86.8 1 22.1573 5.48773 -5.50339 
2 86.8 1 7.29406 32.6483 -7.57532 
14 86.8 1 4.30511 -37.4311 9.39085 
1 86.8 1 -39.1609 -19.1493 0.890648 
10 86.8 1 -19.8872 -4.86807 7.63231 
16 86.8 1 -8.072 -8.75834 0.603125 
54 67 2 -16.0863 -30.7985 16.3982 
56 29 4 -16.4488 -33.6422 17.4383 
55 15 3 -14.437 -28.674 16.3863 
66 67 2 -4.41782 -25.7289 10.7207 
67 15 3 -6.19507 -23.7301 10.4381 
68 29 4 -1.77169 -26.5212 12.0131 
5 86.8 1 -0.51482 -13.8703 11.0869 
11 86.8 1 26.3929 -12.3701 14.9612 
72 67 2 -17.7627 7.00302 12.3513 
73 15 3 -15.219 7.60558 11.7188 
74 29 4 -19.5802 4.83975 13.499 
46 15 3 -20.9638 11.0668 10.8516 
45 67 2 -19.2074 11.3124 12.8738 
47 29 4 -17.1038 13.1386 14.1147 
8 86.8 1 -17.965 -21.7046 22.792 
42 67 2 -1.18963 -27.4935 29.6459 
43 15 3 -3.64682 -27.1452 28.6093 
12 86.8 1 8.19556 -12.0217 26.7095 
22 15 3 -37.7019 -3.17006 29.0286 
63 67 2 10.5597 9.82188 24.8149 
65 29 4 10.8642 6.90589 23.9757 
64 15 3 11.8501 11.936 25.8634 
19 86.8 1 -6.79351 -30.4279 34.6625 
44 29 4 0.518192 -29.307 31.405 
21 67 2 -38.1042 -3.11169 31.6873 
23 29 4 -39.7893 -4.25119 33.9593 
75 67 2 -1.49285 -2.96744 30.312 
76 15 3 -3.43964 -1.11907 30.1466 
77 29 4 -0.737055 -5.66155 31.5247 
13 86.8 1 18.8543 7.20412 39.2074 
41 29 4 -33.8463 19.7764 39.375 
57 67 2 2.67953 23.1166 38.6166 
59 29 4 4.49845 22.5236 36.2418 
27 67 2 -14.0447 34.5651 35.9528 
28 15 3 -14.3118 35.0709 33.3247 
29 29 4 -14.9328 35.4269 38.74 
ITEM: TIMESTEP
0
ITEM: NUMBER OF ATOMS
80
ITEM: BOX BOUNDS pp pp pp
-4.0000000000000000e+01 4.0000000000000000e+01
-4.0000000000000000e+01 4.0000000000000000e+01
-4.0000000000000000e+01 4.0000000000000000e+01
ITEM: ATOMS id mass type x y z 
78 67 2 -39.7597 -32.9278 -38.5984 
79 15 3 -38.5668 -30.9355 -39.9554 
80 29 4 39.2843 -33.8169 -35.8424 
60 67 2 18.0732 -15.243 -33.5506 
61 15 3 18.8208 -17.585 -32.4597 
62 29 4 15.7099 -13.687 -34.6881 
30 67 2 27.8663 -15.3057 -37.4882 
31 15 3 27.0454 -13.2024 -38.9498 
32 29 4 30.2505 -16.5224 -36.027 
15 86.8 1 -10.8049 -0.254445 -37.2091 
40 15 3 -28.7993 18.8743 -38.7402 
39 67 2 -31.0266 20.1596 -39.5284 
36 67 2 -28.4111 27.7125 -35.2515 
37 15 3 -27.6218 25.1574 -34.9653 
17 86.8 1 -5.49174 23.3023 -31.7602 
58 15 3 1.80758 22.1821 -39.0169 
38 29 4 -28.6981 30.0041 -37.2431 
4 86.8 1 -0.92146 31.4224 -38.5658 
9 86.8 1 29.0907 -33.2351 -21.3641 
20 86.8 1 28.7536 -12.8919 -27.5058 
33 67 2 9.10006 -33.8169 -10.2079 
35 29 4 6.61192 -34.2997 -11.9038 
6 86.8 1 23.8599 -12.7861 -14.754 
50 29 4 -4.69517 -0.792116 -18.2943 
48 67 2 -5.37643 1.58185 -16.5054 
49 15 3 -4.33668 3.64863 -15.1339 
3 86.8 1 -36.8172 14.298 -19.4259 
34 15 3 11.585 -34.7002 -9.68001 
24 67 2 2.7346 -12.269 -3.20904 
25 15 3 5.07555 -12.3735 -4.52922 
26 29 4 0.481982 -13.9547 -2.03267 
71 29 4 1.82169 -11.2471 -4.25943 
51 67 2 16.1529 -11.081 -4.0096 
52 15 3 18.8372 -11.2308 -3.93611 
53 29 4 13.5747 -12.6313 -3.50962 
70 15 3 -1.38079 -7.40055 -6.4496 
69 67 2 0.728963 -9.01475 -6.02762 
18 86.8 1 -27.1543 9.41933 -9.98643 
7 86.8 1 22.1573 5.48773 -5.50339 
2 86.8 1 7.29406 32.6483 -7.57532 
14 86.8 1 4.30511 -37.4311 9.39085 
1 86.8 1 -39.1609 -19.1493 0.890648 
10 86.8 1 -19.8872 -4.86807 7.63231 
16 86.8 1 -8.072 -8.75834 0.603125 
54 67 2 -16.0863 -30.7985 16.3982 
56 29 4 -16.4488 -33.6422 17.4383 
55 15 3 -14.437 -28.674 16.3863 
66 67 2 -4.41782 -25.7289 10.7207 
67 15 3 -6.19507 -23.7301 10.4381 
68 29 4 -1.77169 -26.5212 12.0131 
5 86.8 1 -0.51482 -13.8703 11.0869 
11 86.8 1 26.3929 -12.3701 14.9612 
72 67 2 -17.7627 7.00302 12.3513 
73 15 3 -15.219 7.60558 11.7188 
74 29 4 -19.5802 4.83975 13.499 
46 15 3 -20.9638 11.0668 10.8516 
45 67 2 -19.2074 11.3124 12.8738 
47 29 4 -17.1038 13.1386 14.1147 
8 86.8 1 -17.965 -21.7046 22.792 
42 67 2 -1.18963 -27.4935 29.6459 
43 15 3 -3.64682 -27.1452 28.6093 
12 86.8 1 8.19556 -12.0217 26.7095 
22 15 3 -37.7019 -3.17006 29.0286 
63 67 2 10.5597 9.82188 24.8149 
65 29 4 10.8642 6.90589 23.9757 
64 15 3 11.8501 11.936 25.8634 
19 86.8 1 -6.79351 -30.4279 34.6625 
44 29 4 0.518192 -29.307 31.405 
21 67 2 -38.1042 -3.11169 31.6873 
23 29 4 -39.7893 -4.25119 33.9593 
75 67 2 -1.49285 -2.96744 30.312 
76 15 3 -3.43964 -1.11907 30.1466 
77 29 4 -0.737055 -5.66155 31.5247 
13 86.8 1 18.8543 7.20412 39.2074 
41 29 4 -33.8463 19.7764 39.375 
57 67 2 2.67953 23.1166 38.6166 
59 29 4 4.49845 22.5236 36.2418 
27 67 2 -14.0447 34.5651 35.9528 
28 15 3 -14.3118 35.0709 33.3247 
29 29 4 -14.9328 35.4269 38.74 
ITEM: TIMESTEP
2000
ITEM: NUMBER OF ATOMS
80
ITEM: BOX BOUNDS pp pp pp
-4.0277956495664753e+01 4.0277956495664753e+01
-4.0277956495664753e+01 4.0277956495664753e+01
-4.0277956495664753e+01 4.0277956495664753e+01
ITEM: ATOMS id mass type x y z 
78 67 2 -40.0685 -32.6007 -38.9547 
79 15 3 -38.0878 -31.1406 -40.0538 
80 29 4 39.4885 -33.8989 -36.3747 
60 67 2 18.2882 -15.3249 -33.9312 
61 15 3 19.3536 -17.543 -32.8324 
62 29 4 15.6947 -14.0769 -34.9295 
30 67 2 28.0957 -15.3597 -37.221 
31 15 3 27.1776 -13.7277 -39.1562 
32 29 4 30.5646 -16.8139 -36.2033 
15 86.8 1 -11.3807 -0.250647 -37.2046 
40 15 3 -29.2052 19.1332 -39.2128 
39 67 2 -31.3715 20.4954 -40.057 
36 67 2 -28.6777 27.6608 -35.8105 
37 15 3 -27.1726 25.5169 -35.1808 
17 86.8 1 -5.81419 23.3634 -31.7098 
58 15 3 2.50275 22.6223 -39.2719 
38 29 4 -28.6075 30.4303 -37.1278 
4 86.8 1 -0.703035 31.7857 -38.9302 
9 86.8 1 29.1903 -33.6912 -21.3953 
20 86.8 1 28.6864 -13.1776 -27.7547 
33 67 2 9.30452 -34.2475 -10.2953 
35 29 4 6.86783 -34.8073 -12.0406 
6 86.8 1 24.2836 -12.836 -14.7292 
50 29 4 -4.85439 -0.744369 -18.3618 
48 67 2 -5.30608 1.78334 -16.72 
49 15 3 -4.39937 3.17613 -14.595 
3 86.8 1 -37.2758 14.3555 -19.5866 
34 15 3 11.6652 -35.2504 -9.48319 
24 67 2 2.22513 -12.291 -3.47733 
25 15 3 4.51445 -11.9078 -4.84979 
26 29 4 0.772975 -14.1928 -1.61483 
71 29 4 2.11601 -11.5118 -3.96029 
51 67 2 15.9787 -11.0775 -3.88315 
52 15 3 18.6289 -11.4431 -4.25998 
53 29 4 13.2944 -12.4433 -3.36986 
70 15 3 -1.08968 -7.4783 -5.65438 
69 67 2 0.86354 -9.32375 -5.59901 
18 86.8 1 -27.2578 9.70496 -9.91504 
7 86.8 1 22.6993 5.64265 -5.74836 
2 86.8 1 7.28263 33.4168 -7.63474 
14 86.8 1 4.23183 -38.1554 9.67886 
67 15 3 -5.90536 -23.9415 9.79215 
1 86.8 1 -39.3498 -19.2442 1.09651 
10 86.8 1 -20.0986 -5.20034 7.88199 
16 86.8 1 -7.93659 -8.85628 0.356646 
54 67 2 -16.0802 -31.0071 16.347 
56 29 4 -16.3208 -33.7842 17.5709 
55 15 3 -15.5977 -28.4121 16.8846 
66 67 2 -4.40104 -25.9506 10.778 
68 29 4 -1.81368 -26.701 12.2256 
5 86.8 1 -0.533088 -14.4485 11.1195 
11 86.8 1 26.4078 -12.1827 15.4348 
72 67 2 -18.1872 6.78679 12.3528 
73 15 3 -15.6174 7.28737 11.7162 
74 29 4 -20.0646 5.30765 14.2454 
46 15 3 -19.8031 10.8351 10.2431 
45 67 2 -19.228 11.6842 12.7332 
47 29 4 -17.2738 13.3405 14.4015 
8 86.8 1 -17.7627 -22.2944 22.4644 
42 67 2 -1.02193 -27.3561 29.7807 
43 15 3 -3.20021 -26.973 28.2357 
12 86.8 1 8.52684 -11.6161 27.0337 
22 15 3 -38.4614 -2.54557 29.3357 
76 15 3 -3.70423 -1.41163 29.9353 
65 29 4 11.02 7.16153 23.9258 
63 67 2 10.9366 10.1188 24.6575 
64 15 3 11.2486 11.8802 26.6794 
19 86.8 1 -6.85191 -30.5913 34.996 
44 29 4 0.713638 -29.4679 31.1402 
21 67 2 -38.4646 -3.39528 31.9001 
23 29 4 -40.2096 -4.03893 34.32 
75 67 2 -1.5148 -2.77751 30.7205 
77 29 4 -0.455673 -5.57136 31.3128 
13 86.8 1 18.6586 7.02189 39.226 
41 29 4 -34.2117 20.1925 39.4291 
57 67 2 2.82618 23.0869 38.6491 
59 29 4 4.78947 22.9092 36.3293 
27 67 2 -14.1813 34.5041 36.0521 
28 15 3 -14.9554 34.6097 33.4711 
29 29 4 -14.9541 35.1956 38.9264 
ITEM: TIMESTEP
4000
ITEM: NUMBER OF ATOMS
80
ITEM: BOX BOUNDS pp pp pp
-3.9276035993056951e+01 3.9276035993056951e+01
-3.9276035993056951e+01 3.9276035993056951e+01
-3.9276035993056951e+01 3.9276035993056951e+01
ITEM: ATOMS id mass type x y z 
78 67 2 -39.0181 -31.2614 -37.9829 
79 15 3 -36.711 -30.4172 -39.0747 
80 29 4 38.3337 -32.9582 -35.7515 
61 15 3 19.2455 -16.9574 -32.013 
62 29 4 15.159 -13.9488 -34.0593 
60 67 2 17.9173 -14.9238 -33.1832 
30 67 2 27.51 -14.8778 -35.8666 
31 15 3 26.2639 -13.7315 -37.9664 
32 29 4 29.8958 -16.6073 -35.0449 
15 86.8 1 -11.5248 -0.235681 -36.0726 
40 15 3 -28.6244 18.6451 -38.3872 
39 67 2 -30.7117 20.0918 -39.2822 
36 67 2 -27.7606 26.8471 -35.2404 
37 15 3 -26.4513 24.9445 -33.8858 
17 86.8 1 -5.93474 22.6693 -30.7119 
58 15 3 2.7279 22.5482 -38.277 
38 29 4 -27.9275 29.8406 -35.7523 
4 86.8 1 -0.481823 31.0915 -38.1106 
9 86.8 1 28.3739 -33.0552 -20.7914 
20 86.8 1 27.7112 -13.0538 -27.2558 
50 29 4 -4.97175 -0.668429 -17.987 
3 86.8 1 -36.5267 13.9889 -19.1728 
33 67 2 9.22987 -33.6168 -10.0454 
35 29 4 6.81032 -34.2046 -11.8161 
34 15 3 11.4366 -34.6866 -8.94752 
6 86.8 1 23.8383 -12.4895 -14.2201 
48 67 2 -4.98229 1.88573 -16.3207 
49 15 3 -4.63284 2.87831 -13.8343 
7 86.8 1 22.4395 5.59617 -5.77396 
18 86.8 1 -26.4622 9.65927 -9.52109 
2 86.8 1 7.04225 33.0961 -7.46042 
1 86.8 1 -38.2887 -18.7464 1.25291 
16 86.8 1 -7.45245 -8.67715 0.043153 
24 67 2 1.78268 -12.2087 -3.35882 
25 15 3 3.78452 -11.3152 -4.92802 
26 29 4 0.991315 -14.0628 -1.08253 
71 29 4 2.23625 -11.306 -3.75504 
70 15 3 -1.14955 -7.205 -4.85877 
69 67 2 0.84047 -8.98823 -5.11902 
51 67 2 15.4341 -10.7067 -3.66523 
53 29 4 12.6976 -11.9301 -3.12608 
52 15 3 17.9582 -11.2594 -4.45509 
54 67 2 -15.5468 -30.0655 15.9835 
14 86.8 1 4.00681 -37.5858 9.64731 
55 15 3 -16.3574 -27.5323 16.4211 
67 15 3 -5.37726 -23.3764 8.95889 
66 67 2 -4.24864 -25.2904 10.4804 
68 29 4 -1.73759 -26.0401 12.0366 
5 86.8 1 -0.527391 -14.5532 10.7726 
11 86.8 1 25.598 -11.6353 15.3966 
10 86.8 1 -19.6538 -5.26348 7.90241 
74 29 4 -19.8177 5.48366 14.3507 
72 67 2 -17.9877 6.18821 12.0063 
46 15 3 -18.4492 10.5462 9.68271 
45 67 2 -18.6202 11.7872 12.0569 
47 29 4 -16.9995 13.1146 14.2737 
73 15 3 -15.4121 6.44752 11.2547 
56 29 4 -15.759 -32.9409 17.0016 
8 86.8 1 -17.0131 -22.191 21.4517 
43 15 3 -2.77875 -25.835 27.1518 
12 86.8 1 8.52549 -10.8802 26.5123 
65 29 4 10.7683 7.17268 22.8913 
63 67 2 11.0199 10.0026 24.0016 
64 15 3 10.2324 11.6474 25.9957 
19 86.8 1 -6.64276 -29.7767 34.1403 
44 29 4 0.891836 -28.6805 30.0325 
42 67 2 -0.909442 -26.4516 28.9932 
22 15 3 -37.533 -1.99378 28.7936 
21 67 2 -37.754 -3.51395 31.0174 
23 29 4 -39.1919 -3.77147 33.6918 
76 15 3 -3.60542 -1.34855 28.8732 
75 67 2 -1.5966 -2.65755 30.1165 
77 29 4 -0.0156626 -5.26639 30.1871 
13 86.8 1 17.8959 6.64837 37.9993 
41 29 4 -33.5766 19.9196 38.2321 
57 67 2 2.92247 22.3408 37.5924 
59 29 4 4.83312 22.6157 35.2227 
27 67 2 -13.8384 33.3966 35.0167 
28 15 3 -14.9378 33.1516 32.5717 
29 29 4 -14.4506 33.9214 37.9569 
ITEM: TIMESTEP
6000
ITEM: NUMBER OF ATOMS
80
ITEM: BOX BOUNDS pp pp pp
-3.6380838897989371e+01 3.6380838897989371e+01
-3.6380838897989371e+01 3.6380838897989371e+01
-3.6380838897989371e+01 3.6380838897989371e+01
ITEM: ATOMS id mass type x y z 
78 67 2 -36.0331 -28.5016 -35.1306 
79 15 3 -33.693 -28.066 -36.384 
80 29 4 35.2136 -30.4501 -33.332 
61 15 3 18.2212 -15.5951 -29.4792 
62 29 4 13.8262 -13.0707 -31.561 
60 67 2 16.6891 -13.805 -30.7865 
30 67 2 25.6162 -13.6713 -32.8462 
31 15 3 24.0238 -12.8764 -34.8695 
32 29 4 27.844 -15.6005 -32.0358 
15 86.8 1 -11.0479 -0.206361 -33.2521 
40 15 3 -26.56 17.1034 -35.6453 
36 67 2 -25.3449 24.8701 -32.7434 
37 15 3 -24.765 22.8196 -31.1087 
17 86.8 1 -5.75298 20.8766 -28.2896 
58 15 3 2.42223 21.3892 -35.3818 
38 29 4 -26.1116 27.8251 -32.8582 
4 86.8 1 -0.255938 28.8484 -35.4975 
9 86.8 1 26.2011 -30.8043 -19.226 
20 86.8 1 25.4027 -12.3118 -25.5743 
50 29 4 -4.85837 -0.565059 -16.8991 
3 86.8 1 -33.9938 12.976 -17.8774 
33 67 2 8.72301 -31.3829 -9.29028 
35 29 4 6.30766 -31.9585 -11.074 
34 15 3 10.7622 -32.4883 -7.92931 
6 86.8 1 22.1559 -11.5511 -13.0125 
48 67 2 -4.43857 1.84346 -15.0673 
49 15 3 -4.67207 2.76642 -12.5433 
18 86.8 1 -24.362 9.12624 -8.66171 
7 86.8 1 21.0228 5.25973 -5.48652 
2 86.8 1 6.46725 31.1582 -6.93621 
1 86.8 1 -35.3828 -17.3619 1.33499 
16 86.8 1 -6.50676 -8.08292 -0.325154 
24 67 2 1.44843 -11.3991 -2.90518 
25 15 3 3.23644 -10.412 -4.6064 
26 29 4 1.10141 -13.2636 -0.507492 
71 29 4 1.68358 -10.988 -3.79709 
70 15 3 -1.39774 -6.40094 -4.22368 
69 67 2 0.667938 -8.11991 -4.26629 
51 67 2 14.2877 -9.82143 -3.30428 
53 29 4 11.4975 -10.9035 -2.71699 
52 15 3 16.6435 -10.4436 -4.46074 
54 67 2 -14.4041 -27.564 14.995 
14 86.8 1 3.57521 -35.1291 9.13888 
55 15 3 -15.9619 -25.3671 14.9553 
67 15 3 -4.69267 -21.6193 7.75471 
66 67 2 -3.89026 -23.3439 9.65889 
68 29 4 -1.469 -24.1877 11.3126 
5 86.8 1 -0.492529 -13.9434 9.87942 
11 86.8 1 23.5693 -10.553 14.5937 
10 86.8 1 -18.2419 -4.97699 7.55826 
74 29 4 -18.5807 5.23562 13.6486 
72 67 2 -16.8933 5.1907 11.1049 
46 15 3 -16.5487 10.0393 8.51843 
45 67 2 -17.1047 11.3525 10.7972 
47 29 4 -15.9382 12.3177 13.4508 
73 15 3 -14.3645 5.02798 10.1951 
56 29 4 -14.3745 -30.5733 15.5221 
8 86.8 1 -15.4628 -21.042 19.4208 
43 15 3 -2.43332 -23.4049 24.872 
12 86.8 1 8.05189 -9.65696 24.7225 
65 29 4 10.1343 6.79361 20.6322 
63 67 2 10.4393 9.31353 22.3291 
64 15 3 9.11793 11.1112 23.8467 
19 86.8 1 -6.07216 -27.522 31.5755 
44 29 4 1.04872 -26.5925 27.6367 
42 67 2 -0.81586 -24.3148 26.8255 
22 15 3 -34.5354 -1.63536 26.6719 
21 67 2 -35.2822 -3.33605 28.6289 
23 29 4 -36.2369 -3.48521 31.5226 
76 15 3 -3.37778 -1.00219 26.6181 
75 67 2 -1.60268 -2.51398 27.9755 
77 29 4 0.482964 -4.7344 27.7452 
13 86.8 1 16.2958 5.98611 34.9439 
39 67 2 -28.5571 18.6481 36.1799 
41 29 4 -31.4433 18.6469 35.1776 
57 67 2 2.92081 20.6053 34.8501 
59 29 4 4.5629 21.2086 32.346 
27 67 2 -12.794 30.7232 32.3008 
28 15 3 -14.064 30.1846 29.9893 
29 29 4 -13.2045 31.0943 35.3029 
ITEM: TIMESTEP
8000
ITEM: NUMBER OF ATOMS
80
ITEM: BOX BOUNDS pp pp pp
-3.2055152607113889e+01 3.2055152607113889e+01
-3.2055152607113889e+01 3.2055152607113889e+01
-3.2055152607113889e+01 3.2055152607113889e+01
ITEM: ATOMS id mass type x y z 
78 67 2 -31.6313 -24.7363 -30.888 
80 29 4 30.6569 -26.7618 -29.49 
61 15 3 16.4555 -13.6406 -25.6106 
62 29 4 11.8908 -11.6086 -27.8308 
60 67 2 14.815 -12.143 -27.128 
31 15 3 20.8766 -11.3271 -30.4462 
32 29 4 24.7666 -13.9698 -27.6705 
30 67 2 22.6958 -11.9157 -28.5569 
20 86.8 1 22.1101 -11.0906 -23.0137 
15 86.8 1 -10.053 -0.166719 -29.181 
40 15 3 -23.3786 14.741 -31.4444 
37 15 3 -21.9627 19.6639 -27.3314 
17 86.8 1 -5.31465 18.2699 -24.8196 
58 15 3 1.76854 19.2472 -31.0109 
36 67 2 -21.9813 21.9729 -28.7176 
38 29 4 -23.259 24.765 -28.8837 
4 86.8 1 -0.0475774 25.4083 -31.5148 
9 86.8 1 23.0144 -27.3096 -16.9454 
50 29 4 -4.51232 -0.462837 -15.2369 
6 86.8 1 19.5149 -10.1693 -11.2912 
48 67 2 -3.78488 1.69677 -13.199 
49 15 3 -4.4476 2.75995 -10.8155 
3 86.8 1 -30.0915 11.4773 -15.9123 
33 67 2 7.87146 -27.9125 -8.14697 
35 29 4 5.45442 -28.4599 -9.93653 
34 15 3 9.72892 -29.0632 -6.5806 
26 29 4 1.04593 -11.9594 0.127397 
16 86.8 1 -5.19954 -7.16844 -0.721768 
70 15 3 -1.76148 -5.3407 -3.28367 
24 67 2 1.02356 -10.2186 -2.37906 
25 15 3 2.64676 -9.23249 -4.29412 
71 29 4 1.17792 -9.88085 -3.3889 
69 67 2 0.365442 -6.93746 -3.31532 
53 29 4 9.87552 -9.50374 -2.18268 
51 67 2 12.7055 -8.5609 -2.86114 
52 15 3 14.9163 -9.13716 -4.2926 
18 86.8 1 -21.2851 8.2032 -7.46411 
7 86.8 1 18.694 4.69373 -4.94161 
2 86.8 1 5.64999 27.9536 -6.15103 
68 29 4 -1.06821 -21.4314 10.2014 
14 86.8 1 2.99942 -31.201 8.24949 
1 86.8 1 -31.0914 -15.3106 1.34166 
67 15 3 -3.98208 -18.8783 6.32881 
66 67 2 -3.36376 -20.4371 8.43889 
5 86.8 1 -0.439605 -12.7511 8.57129 
10 86.8 1 -16.0866 -4.39288 6.91837 
72 67 2 -15.0998 3.96856 9.75396 
73 15 3 -12.7215 3.23437 8.73131 
46 15 3 -14.1328 9.29763 6.87371 
45 67 2 -14.9681 10.4547 9.15515 
54 67 2 -12.7908 -23.9577 13.432 
56 29 4 -12.4105 -26.9844 13.4691 
55 15 3 -14.5908 -21.9871 13.1066 
8 86.8 1 -13.3472 -19.078 16.6483 
11 86.8 1 20.6385 -9.09414 13.1748 
74 29 4 -16.5947 4.61321 12.3346 
65 29 4 9.21279 6.05321 17.6158 
63 67 2 9.33003 8.21357 19.7734 
64 15 3 7.97114 10.2405 20.9112 
47 29 4 -14.1979 11.0689 12.0556 
79 15 3 -29.369 -24.4595 31.7906 
19 86.8 1 -5.22902 -24.1821 27.7149 
44 29 4 1.15639 -23.5607 24.2861 
43 15 3 -2.19375 -20.0955 21.689 
42 67 2 -0.746245 -21.2518 23.6429 
22 15 3 -30.1819 -1.42315 23.2508 
21 67 2 -31.3691 -2.93289 25.1407 
23 29 4 -31.9083 -3.1846 28.14 
76 15 3 -3.13253 -0.570234 23.4414 
75 67 2 -1.49766 -2.31195 24.683 
12 86.8 1 7.18803 -8.11268 21.9602 
77 29 4 0.94642 -4.10794 24.3159 
13 86.8 1 14.0957 5.1309 30.5325 
39 67 2 -25.2595 16.4097 31.7082 
41 29 4 -28.1564 16.5894 30.7454 
57 67 2 2.7822 18.2023 30.8378 
59 29 4 4.08199 18.8813 28.1623 
27 67 2 -11.206 26.8952 28.3367 
28 15 3 -12.5344 26.1499 26.1163 
29 29 4 -11.4033 27.1433 31.3811 
ITEM: TIMESTEP
10000
ITEM: NUMBER OF ATOMS
80
ITEM: BOX BOUNDS pp pp pp
-2.7351458743351117e+01 2.7351458743351117e+01
-2.7351458743351117e+01 2.7351458743351117e+01
-2.7351458743351117e+01 2.7351458743351117e+01
ITEM: ATOMS id mass type x y z 
78 67 2 -26.9001 -20.8139 -26.2925 
80 29 4 25.7826 -22.8075 -25.182 
61 15 3 14.4475 -11.4803 -21.3268 
62 29 4 9.81786 -9.93817 -23.7777 
60 67 2 12.7636 -10.349 -23.091 
31 15 3 17.5583 -9.48719 -25.7823 
32 29 4 21.4103 -12.1406 -22.9585 
30 67 2 19.4623 -10.0074 -23.9554 
20 86.8 1 18.6071 -9.71919 -20.2686 
15 86.8 1 -8.81533 -0.1255 -24.8352 
40 15 3 -19.8707 12.1378 -26.8174 
17 86.8 1 -4.74936 15.4789 -21.1356 
37 15 3 -18.6279 16.3727 -23.1524 
36 67 2 -18.5124 18.8143 -24.2737 
38 29 4 -20.0181 21.4292 -24.6352 
58 15 3 1.06908 16.7527 -26.1753 
4 86.8 1 0.110789 21.5933 -27.1427 
35 29 4 4.46641 -24.5739 -8.68614 
33 67 2 6.88612 -24.0923 -6.89271 
9 86.8 1 19.5826 -23.4377 -14.5012 
6 86.8 1 16.564 -8.67874 -9.46209 
50 29 4 -4.03046 -0.397071 -13.409 
48 67 2 -3.17276 1.50643 -11.1849 
49 15 3 -4.02824 2.81315 -8.99949 
3 86.8 1 -25.7812 9.85813 -13.768 
18 86.8 1 -17.9658 7.13009 -6.20351 
34 15 3 8.59388 -25.2747 -5.18174 
1 86.8 1 -26.4501 -13.0909 1.28693 
16 86.8 1 -3.74042 -6.13639 -1.1104 
24 67 2 0.700778 -9.07531 -1.90131 
25 15 3 2.13738 -8.21604 -4.02736 
71 29 4 0.889547 -8.42914 -2.6909 
69 67 2 -0.170411 -5.56846 -2.4928 
67 15 3 -3.29909 -15.7523 4.98385 
26 29 4 0.792274 -10.4893 0.803713 
53 29 4 8.24182 -8.06633 -1.65395 
51 67 2 11.0638 -7.20581 -2.42996 
52 15 3 13.1475 -7.722 -4.04597 
70 15 3 -2.37283 -4.13409 -2.00077 
7 86.8 1 16.041 4.04427 -4.28322 
2 86.8 1 4.79198 24.3206 -5.30361 
54 67 2 -10.9727 -20.0628 11.6996 
56 29 4 -10.4417 -23.0488 11.3316 
55 15 3 -12.842 -18.1395 11.4898 
8 86.8 1 -11.1759 -16.8608 13.7269 
68 29 4 -0.631854 -18.4087 8.95514 
14 86.8 1 2.40837 -26.7851 7.21464 
66 67 2 -2.80814 -17.2946 7.13351 
5 86.8 1 -0.388673 -11.3168 7.14862 
11 86.8 1 17.5093 -7.59337 11.5121 
10 86.8 1 -13.7077 -3.64769 6.1605 
72 67 2 -13.0698 2.78965 8.23966 
73 15 3 -10.9572 1.46221 7.22915 
74 29 4 -14.3676 3.81443 10.8084 
65 29 4 8.17136 5.11858 14.5468 
46 15 3 -11.6825 8.4159 5.176 
45 67 2 -12.7244 9.32842 7.48298 
47 29 4 -12.2025 9.66633 10.4656 
79 15 3 -24.716 -20.5523 26.8628 
19 86.8 1 -4.31025 -20.5578 23.4918 
44 29 4 1.19012 -20.319 20.7542 
43 15 3 -2.08166 -16.6836 18.328 
42 67 2 -0.716451 -17.9969 20.234 
12 86.8 1 6.14609 -6.58346 18.912 
22 15 3 -25.5738 -1.24148 19.4502 
21 67 2 -26.9804 -2.47989 21.3743 
23 29 4 -27.2594 -2.85717 24.3896 
76 15 3 -2.92471 -0.189906 20.0554 
75 67 2 -1.31611 -2.08293 21.0778 
77 29 4 1.32663 -3.55389 20.6697 
13 86.8 1 11.8055 4.27958 25.8165 
39 67 2 -21.6397 13.9196 26.9239 
41 29 4 -24.5241 14.2821 26.0006 
57 67 2 2.50108 15.7037 26.5073 
59 29 4 3.56809 16.235 23.6946 
63 67 2 8.05439 6.99969 16.9479 
64 15 3 6.86376 9.19726 17.9313 
27 67 2 -9.4429 22.8349 24.0812 
28 15 3 -10.7868 21.9695 21.9187 
29 29 4 -9.47788 22.988 27.126 
ITEM: TIMESTEP
12000
ITEM: NUMBER OF ATOMS
80
ITEM: BOX BOUNDS pp pp pp
-2.2653817724832678e+01 2.2653817724832678e+01
-2.2653817724832678e+01 2.2653817724832678e+01
-2.2653817724832678e+01 2.2653817724832678e+01
ITEM: ATOMS id mass type x y z 
78 67 2 -22.2212 -17.0235 -21.727 
80 29 4 20.9694 -18.986 -20.7554 
9 86.8 1 16.1895 -19.4961 -12.0791 
15 86.8 1 -7.43187 -0.0902219 -20.5621 
50 29 4 -3.47755 -0.43466 -11.5458 
62 29 4 7.78159 -8.22093 -19.7206 
60 67 2 10.7306 -8.56382 -19.0277 
61 15 3 12.4482 -9.25817 -17.0753 
31 15 3 14.3001 -7.53419 -21.2693 
32 29 4 18.0046 -10.2737 -18.3323 
30 67 2 16.1208 -8.11308 -19.3733 
20 86.8 1 15.2139 -8.29228 -17.5331 
40 15 3 -16.2854 9.54994 -22.1192 
3 86.8 1 -21.4075 8.23695 -11.5927 
37 15 3 -15.2106 13.1718 -18.7422 
36 67 2 -15.1563 15.6027 -19.9018 
38 29 4 -16.7593 18.1429 -20.3855 
17 86.8 1 -4.08677 12.7489 -17.5289 
29 29 4 -7.61429 18.9582 -22.3997 
58 15 3 0.479061 14.2963 -21.2664 
4 86.8 1 0.19636 17.7185 22.6148 
35 29 4 3.41077 -20.5962 -7.4391 
33 67 2 5.83145 -20.2066 -5.6297 
34 15 3 7.44157 -21.4202 -3.84329 
16 86.8 1 -2.23178 -4.85175 -1.39216 
69 67 2 -0.849496 -4.64169 -1.74488 
70 15 3 -3.19742 -3.7562 -0.791389 
24 67 2 0.336639 -7.64143 -1.50167 
25 15 3 1.71161 -6.8782 -3.67219 
71 29 4 0.955289 -7.09474 -2.03496 
53 29 4 6.65868 -6.71345 -1.18158 
51 67 2 9.4574 -5.86531 -2.03704 
52 15 3 11.4369 -6.35753 -3.78935 
6 86.8 1 13.5718 -7.19465 -7.69058 
18 86.8 1 -14.6997 5.98679 -4.99876 
48 67 2 -2.6121 1.31573 -9.20489 
49 15 3 -3.49854 2.82009 -7.1589 
7 86.8 1 13.2935 3.36492 -3.56785 
2 86.8 1 3.97477 20.5297 -4.4595 
67 15 3 -2.68094 -12.4852 3.80965 
54 67 2 -8.94249 -16.1612 10.0055 
56 29 4 -8.73258 -19.1093 9.25526 
55 15 3 -10.661 -14.1336 10.4216 
8 86.8 1 -9.2453 -14.5816 10.8324 
68 29 4 -0.183766 -15.3928 7.69154 
66 67 2 -2.29705 -14.1871 5.85969 
14 86.8 1 1.86977 -22.2483 6.1055 
1 86.8 1 -21.8439 -10.877 1.16453 
10 86.8 1 -11.2882 -2.81227 5.32221 
5 86.8 1 -0.356684 -9.72603 5.73915 
26 29 4 0.544889 -8.89954 1.27882 
11 86.8 1 14.4446 -6.18028 9.72134 
74 29 4 -12.1136 3.01268 9.23371 
46 15 3 -9.40275 7.29498 3.58674 
72 67 2 -10.9457 1.81852 6.68391 
73 15 3 -9.24741 -0.041735 5.73265 
45 67 2 -10.5513 8.00948 5.91617 
47 29 4 -10.118 8.19803 8.92467 
79 15 3 -20.0795 -16.7469 21.9728 
19 86.8 1 -3.41085 -16.9453 19.2775 
43 15 3 -2.08007 -13.4358 15.0018 
42 67 2 -0.725791 -14.8193 16.87 
44 29 4 1.18186 -17.1534 17.3128 
22 15 3 -21.0117 -0.998435 15.6314 
21 67 2 -22.4974 -2.05186 17.6091 
23 29 4 -22.6383 -2.48593 20.6225 
76 15 3 -2.7438 0.12575 16.6503 
75 67 2 -1.0939 -1.82521 17.4908 
12 86.8 1 5.01396 -5.21261 15.8079 
77 29 4 1.62881 -3.12463 17.0492 
65 29 4 7.01898 4.04894 11.6262 
13 86.8 1 9.6256 3.50525 21.2025 
63 67 2 6.75868 5.78068 14.1218 
64 15 3 5.72583 8.06689 15.0899 
39 67 2 -17.9696 11.4174 22.2281 
41 29 4 -20.8372 11.933 21.3348 
27 67 2 -7.66585 18.8812 19.8632 
28 15 3 -9.02155 17.9534 17.7311 
57 67 2 2.07848 13.2196 22.1635 
59 29 4 3.09225 13.5377 19.3054 
ITEM: TIMESTEP
14000
ITEM: NUMBER OF ATOMS
80
ITEM: BOX BOUNDS pp pp pp
-1.9150346575058030e+01 1.9150346575058030e+01
-1.9150346575058030e+01 1.9150346575058030e+01
-1.9150346575058030e+01 1.9150346575058030e+01
ITEM: ATOMS id mass type x y z 
78 67 2 -18.7547 -14.2652 -18.334 
80 29 4 17.402 -16.2126 -17.3923 
9 86.8 1 13.6811 -16.51 -10.2827 
15 86.8 1 -6.32167 -0.0678427 -17.4125 
50 29 4 -3.04751 -0.520059 -10.126 
62 29 4 6.2959 -6.93966 -16.6119 
60 67 2 9.27344 -7.22904 -16.0463 
61 15 3 11.1054 -7.53258 -14.1047 
31 15 3 11.9205 -5.94186 -17.833 
32 29 4 15.4449 -8.86713 -14.9239 
30 67 2 13.3646 -6.80354 -15.7411 
20 86.8 1 12.8262 -7.13459 -15.6224 
40 15 3 -13.5703 7.64628 -18.5548 
3 86.8 1 -18.1035 7.02221 -9.94949 
37 15 3 -12.66 10.8405 -15.3433 
36 67 2 -12.7029 13.1663 -16.6878 
38 29 4 -14.3328 15.6869 -17.2148 
17 86.8 1 -3.53538 10.7547 -14.8803 
29 29 4 -6.24665 16.0097 -18.524 
58 15 3 0.0978025 12.6184 -17.6245 
35 29 4 2.57871 -17.5787 -6.51007 
33 67 2 4.99206 -17.2745 -4.67892 
34 15 3 6.53008 -18.5359 -2.87395 
16 86.8 1 -1.42093 -3.7347 -1.34553 
69 67 2 -1.12424 -4.19272 -1.30955 
70 15 3 -3.63458 -3.72609 -0.466236 
24 67 2 0.164161 -6.42672 -1.22677 
25 15 3 1.57059 -5.66127 -3.38829 
71 29 4 0.980623 -6.33969 -1.71438 
53 29 4 5.49554 -5.7243 -0.84522 
51 67 2 8.26799 -4.89358 -1.79261 
52 15 3 10.1682 -5.35262 -3.63626 
6 86.8 1 11.3141 -6.08395 -6.38773 
18 86.8 1 -12.2942 5.09236 -4.13112 
48 67 2 -2.19379 1.17364 -7.74399 
49 15 3 -3.08308 2.76735 -5.77207 
7 86.8 1 11.1927 2.8408 -3.00407 
2 86.8 1 3.40453 17.627 -3.83394 
67 15 3 -2.25198 -9.91349 3.11489 
54 67 2 -7.3579 -13.1246 8.73472 
56 29 4 -7.66267 -16.0011 7.81628 
55 15 3 -8.7893 -11.1244 9.81167 
8 86.8 1 -7.87716 -12.9783 8.70539 
66 67 2 -1.9044 -11.8705 4.92096 
68 29 4 0.128473 -13.2018 6.75689 
14 86.8 1 1.50299 -18.7956 5.23383 
1 86.8 1 -18.4238 -9.22319 1.0334 
10 86.8 1 -9.37939 -2.05279 4.65137 
5 86.8 1 -0.375808 -8.45587 4.66329 
73 15 3 -8.51107 -1.22198 4.51497 
26 29 4 0.399436 -7.63857 1.55311 
11 86.8 1 12.1961 -5.17487 8.31139 
74 29 4 -10.4352 2.50885 7.99432 
46 15 3 -7.80738 6.28269 2.46323 
72 67 2 -9.2786 1.14547 5.53012 
45 67 2 -8.96323 6.90128 4.80794 
47 29 4 -8.52388 7.04133 7.81871 
79 15 3 -16.6383 -13.9746 18.3379 
19 86.8 1 -2.74443 -14.2393 16.1318 
43 15 3 -2.12009 -11.0978 12.5485 
42 67 2 -0.765952 -12.5107 14.3892 
44 29 4 1.15613 -14.8376 14.7939 
22 15 3 -17.625 -0.787837 12.7713 
21 67 2 -19.1089 -1.74719 14.7954 
75 67 2 -0.895767 -1.63009 14.8327 
12 86.8 1 4.09379 -4.26855 13.4588 
77 29 4 1.84008 -2.86516 14.3213 
23 29 4 19.1076 -2.1788 17.8085 
76 15 3 -2.57595 0.330552 14.0899 
65 29 4 6.08586 3.18539 9.50733 