ITEM: TIMESTEP
0
ITEM: NUMBER OF ATOMS
400
ITEM: BOX BOUNDS pp pp pp
-4.0000000000000000e+01 4.0000000000000000e+01
-4.0000000000000000e+01 4.0000000000000000e+01
-4.0000000000000000e+01 4.0000000000000000e+01
ITEM: ATOMS id mass type x y z 
42 86.8 1 -27.7622 -38.8616 -27.3396 
99 86.8 1 -38.1665 -24.4731 -39.1788 
158 67 2 -39.7606 -32.9289 -38.5958 
159 15 3 -38.5677 -30.9368 -39.9535 
268 29 4 -8.34414 -30.4869 -37.6553 
374 67 2 -15.7518 -29.488 -34.904 
375 15 3 -16.9342 -27.3096 -33.8595 
376 29 4 -13.2572 -30.5009 -36.3177 
266 67 2 -6.20791 -28.7163 -36.4108 
267 15 3 -3.60272 -28.0527 -36.497 
160 29 4 39.2864 -33.8146 -35.8472 
372 15 3 27.042 -39.3688 -24.9635 
93 86.8 1 -39.9839 -9.65028 -32.3075 
39 86.8 1 -16.156 -13.3535 -32.9216 
352 29 4 -15.0164 -9.3376 -33.9053 
344 67 2 7.31191 -15.937 -38.6649 
346 29 4 5.78458 -18.5461 -38.9929 
55 86.8 1 14.479 -11.5641 -38.1806 
140 67 2 18.0709 -15.2414 -33.552 
141 15 3 18.8192 -17.5833 -32.461 
142 29 4 15.7137 -13.6906 -34.6859 
345 15 3 9.4769 -14.5606 -39.473 
20 86.8 1 28.7539 -12.8915 -27.5041 
110 67 2 27.8684 -15.3072 -37.487 
111 15 3 27.0469 -13.204 -38.9485 
112 29 4 30.2465 -16.5196 -36.0303 
191 67 2 27.232 -13.6428 -29.9816 
192 15 3 29.8991 -13.6806 -30.3279 
193 29 4 24.9466 -14.7501 -28.3089 
60 86.8 1 -36.2757 -5.98031 -31.0591 
95 86.8 1 -36.4846 2.87753 -37.3847 
15 86.8 1 -10.805 -0.25449 -37.2088 
59 86.8 1 -21.9858 4.34389 -32.2506 
227 67 2 -10.5871 7.70944 -24.311 
228 15 3 -8.19135 7.02806 -25.3264 
314 67 2 -19.0556 -5.99748 -26.0113 
315 15 3 -17.229 -7.71983 -25.046 
316 29 4 -21.7209 -4.65102 -25.4367 
350 67 2 -12.7406 -7.78324 -35.1905 
351 15 3 -10.2572 -7.98925 -36.2031 
23 86.8 1 10.6912 6.56633 -39.6724 
90 86.8 1 -27.7831 9.71749 -38.1489 
119 67 2 -31.0293 20.1598 -39.5295 
120 15 3 -28.8016 18.875 -38.7411 
17 86.8 1 -5.49156 23.3027 -31.7598 
138 15 3 1.8091 22.1818 -39.0194 
49 86.8 1 10.3064 19.7896 -36.9205 
69 86.8 1 16.1084 14.697 -27.9605 
320 67 2 21.2294 19.1644 -32.5274 
321 15 3 22.9094 17.1518 -33.1285 
322 29 4 21.0661 21.9966 -31.4323 
84 86.8 1 32.7592 23.7886 -25.7712 
392 67 2 30.8908 17.2279 -35.0035 
393 15 3 29.3759 18.4311 -33.1348 
394 29 4 30.8412 15.2849 -37.3422 
37 86.8 1 -26.977 37.0688 -25.3265 
94 86.8 1 -32.8891 33.3131 -26.9005 
116 67 2 -28.4115 27.7147 -35.2537 
117 15 3 -27.6224 25.1594 -34.9669 
118 29 4 -28.6973 29.9993 -37.2402 
26 86.8 1 -11.4076 33.0511 -30.9969 
221 67 2 -10.2202 33.1686 -37.688 
223 29 4 -12.8708 32.0794 -36.6704 
4 86.8 1 -0.921555 31.4227 -38.5649 
222 15 3 -7.54758 32.9616 -37.4662 
325 29 4 -1.61981 31.585 -39.6368 
34 86.8 1 10.3028 38.9862 -39.2581 
63 86.8 1 12.3018 36.4261 -26.5363 
230 67 2 10.0918 39.9478 -33.8353 
231 15 3 10.2655 39.9001 -31.1516 
232 29 4 10.8938 38.4967 -36.3846 
302 67 2 14.0457 29.0264 -31.5003 
303 15 3 11.7706 29.6315 -32.8013 
304 29 4 16.0856 26.8294 -30.9911 
41 86.8 1 34.1641 35.8494 -38.4428 
202 29 4 -32.2577 -39.7795 -20.6511 
261 15 3 -26.0627 -25.6895 -21.2994 
341 67 2 -29.3827 -27.6907 -11.3801 
342 15 3 -31.2975 -27.7104 -13.269 
343 29 4 -28.8016 -27.0522 -8.46431 
260 67 2 -23.494 -25.0521 -20.8196 
27 86.8 1 -5.67109 -34.0726 -17.9854 
115 29 4 6.61679 -34.2993 -11.9011 
244 29 4 -6.13389 -25.06 -8.62976 
67 86.8 1 16.2104 -32.4401 -21.2461 
113 67 2 9.09742 -33.817 -10.2096 
114 15 3 11.5826 -34.6999 -9.68115 
179 67 2 19.5337 -29.4986 -21.2571 
180 15 3 20.001 -27.119 -22.4205 
181 29 4 20.692 -32.2635 -20.7459 
9 86.8 1 29.0907 -33.235 -21.3637 
272 67 2 27.5042 -27.7044 -11.2922 
273 15 3 29.7689 -26.9184 -12.5119 
274 29 4 25.6302 -30.0583 -10.8508 
36 86.8 1 -38.6043 -22.1061 -16.6375 
262 29 4 -20.9613 -23.9169 -22.0622 
77 86.8 1 -7.73111 -16.8464 -17.3779 
6 86.8 1 23.8607 -12.786 -14.7544 
333 15 3 -30.1546 5.46635 -8.07955 
56 86.8 1 -20.6009 0.522678 -15.3454 
229 29 4 -12.6215 7.06343 -22.1451 
305 67 2 -21.9943 -3.92847 -19.3778 
306 15 3 -19.5794 -2.79565 -19.0316 
307 29 4 -23.857 -6.11677 -18.3834 
31 86.8 1 -1.50903 -2.29971 -11.1654 
128 67 2 -5.37584 1.57929 -16.5072 
129 15 3 -4.33667 3.64642 -15.1353 
130 29 4 -4.69551 -0.787675 -18.2909 
58 86.8 1 21.5054 1.01313 -12.3152 
3 86.8 1 -36.8171 14.2976 -19.4253 
18 86.8 1 -27.1548 9.41929 -9.98672 
164 67 2 -29.2217 14.6175 -10.0595 
165 15 3 -28.3787 13.5974 -12.4012 
327 15 3 6.69615 14.5447 -9.02602 
52 86.8 1 13.9718 23.565 -22.3464 
383 67 2 26.5885 15.3997 -15.2383 
384 15 3 24.9472 17.3035 -16.1956 
385 29 4 26.92 12.4038 -14.836 
200 67 2 -32.4112 37.8297 -18.7782 
201 15 3 -31.2414 36.6273 -16.6757 
209 67 2 -17.6286 35.2958 -14.2897 
210 15 3 -15.4892 36.9236 -14.2019 
211 29 4 -18.5117 32.3916 -14.4727 
173 67 2 20.387 32.4428 -19.8866 
174 15 3 22.8335 33.5304 -19.6286 
175 29 4 18.4168 30.4831 -18.6517 
317 67 2 15.2151 26.6244 -14.2601 
318 15 3 17.5824 25.6852 -15.1254 
319 29 4 12.6025 25.8553 -12.9073 
373 29 4 23.6464 37.9701 -21.6265 
371 67 2 24.7729 39.7594 -23.812 
54 86.8 1 -30.5748 -31.3635 -6.51071 
335 67 2 -35.2138 -35.1766 -6.03295 
336 15 3 -33.0161 -33.6284 -5.94381 
337 29 4 -36.233 -37.9801 -6.62371 
203 67 2 0.715832 -25.3828 -1.76334 
205 29 4 -0.0290965 -28.3139 -2.0809 
224 67 2 1.72877 -37.6862 2.55085 
225 15 3 0.163686 -38.9675 4.32382 
226 29 4 2.35613 -37.3698 -0.407804 
242 67 2 -4.80679 -26.7824 -6.50388 
243 15 3 -4.9718 -29.1107 -5.16719 
38 86.8 1 16.9722 -28.6115 7.058 
290 67 2 17.7258 -31.4157 -2.31971 
291 15 3 18.8546 -32.1225 -4.65663 
292 29 4 15.3353 -30.0233 -1.05713 
184 29 4 37.3554 -25.099 -4.07835 
293 67 2 34.2594 -25.3394 -3.32197 
295 29 4 33.8285 -28.2484 -4.0962 
349 29 4 31.8856 -25.2226 -0.111947 
1 86.8 1 -39.161 -19.1491 0.890539 
185 67 2 -36.8296 -17.9695 -4.78929 
186 15 3 -35.1415 -16.0263 -5.56971 
187 29 4 -38.5432 -18.9685 -2.48434 
16 86.8 1 -8.07335 -8.75822 0.604183 
48 86.8 1 -20.1738 -21.1339 1.84746 
81 86.8 1 -22.7585 -21.4197 -0.593034 
197 67 2 -13.9535 -12.2349 3.56335 
198 15 3 -12.8665 -10.3492 5.14355 
199 29 4 -14.1223 -15.2281 3.05391 
359 67 2 -12.7782 -8.00911 -6.0402 
360 15 3 -13.4597 -9.84913 -7.8799 
62 86.8 1 -4.50429 -23.5429 -5.37322 
74 86.8 1 6.70569 -17.4642 -1.35014 
104 67 2 2.73372 -12.2714 -3.20626 
105 15 3 5.07382 -12.3746 -4.5284 
106 29 4 0.486709 -13.9528 -2.03528 
149 67 2 0.730328 -9.01645 -6.02669 
151 29 4 1.81825 -11.2423 -4.2634 
204 15 3 2.43594 -23.4715 -2.55266 
365 67 2 7.77212 -12.0069 -1.5413 
366 15 3 6.00775 -11.3385 -3.45833 
131 67 2 16.1497 -11.0825 -4.00909 
132 15 3 18.8343 -11.2316 -3.93576 
133 29 4 13.5794 -12.6292 -3.51032 
248 67 2 14.9508 -20.4909 5.29304 
249 15 3 15.6854 -20.6183 7.87738 
250 29 4 14.3413 -22.1492 2.81795 
367 29 4 8.15164 -13.6252 1.00511 
395 67 2 22.6901 -13.1133 1.35265 
396 15 3 23.6622 -13.4405 -1.13388 
397 29 4 23.2735 -11.9299 4.09248 
28 86.8 1 39.1683 -18.9824 2.40829 
82 86.8 1 32.8711 -15.0559 -5.16777 
182 67 2 38.6261 -22.7151 -5.47473 
183 15 3 39.652 -21.8436 -7.80341 
294 15 3 33.5081 -22.8096 -3.84193 
347 67 2 34.1833 -23.3439 -0.774037 
348 15 3 36.7839 -22.8324 -0.315778 
178 29 4 -30.3442 5.44833 -5.65875 
332 67 2 -32.6691 5.25974 -7.14722 
334 29 4 -34.6634 3.38107 -5.82781 
10 86.8 1 -19.8872 -4.86895 7.63172 
361 29 4 -12.3759 -5.03338 -5.56006 
29 86.8 1 -3.90748 7.0544 3.26793 
150 15 3 -1.37928 -7.40213 -6.44892 
354 15 3 2.53592 6.78923 -0.631012 
7 86.8 1 22.1578 5.48786 -5.50354 
43 86.8 1 22.5905 -1.56173 -7.95857 
287 67 2 11.4899 -5.71927 3.29759 
288 15 3 14.1726 -5.91291 3.27667 
289 29 4 8.92191 -7.13079 4.11009 
245 67 2 28.4453 5.04042 5.23752 
246 15 3 30.113 3.3476 6.49757 
247 29 4 25.5503 5.50716 4.43228 
329 67 2 37.0501 0.497274 -0.556421 
330 15 3 36.1746 1.6236 -2.83672 
331 29 4 36.1869 -0.564456 2.15928 
166 29 4 -30.6603 13.9657 -7.46092 
167 67 2 -31.5893 21.9295 0.297933 
168 15 3 -29.1279 22.6288 -0.531135 
169 29 4 -33.1542 19.9149 1.95308 
176 67 2 -30.0062 8.29125 -4.63363 
177 15 3 -29.5393 9.77844 -2.44159 
251 67 2 -27.7338 21.515 3.95679 
253 29 4 -27.3062 18.7987 2.65824 
389 67 2 -10.9105 23.187 -0.57024 
391 29 4 -10.7836 20.8877 1.41585 
88 86.8 1 -2.50755 15.6317 2.27175 
206 67 2 1.9445 10.9902 0.819203 
207 15 3 1.48216 11.8133 3.33782 
208 29 4 3.90088 11.1397 -1.50406 
326 67 2 5.21526 16.4522 -7.84157 
328 29 4 5.29867 18.781 -5.88784 
353 67 2 0.973719 8.52841 -1.96124 
355 29 4 -0.994966 8.81475 -4.26115 
89 86.8 1 21.3203 10.1008 4.95343 
275 67 2 11.346 17.9751 -6.86992 
276 15 3 13.4884 19.3901 -6.0685 
277 29 4 9.74003 15.4402 -6.37737 
91 86.8 1 31.5164 16.8306 -7.69561 
263 67 2 34.9219 9.47474 2.86614 
264 15 3 34.2735 8.45592 5.26955 
265 29 4 36.8193 11.3577 1.4164 
252 15 3 -28.5785 24.0315 3.52262 
390 15 3 -9.81732 24.1967 -2.8108 
2 86.8 1 7.29414 32.6479 -7.57523 
96 86.8 1 -5.36277 27.9694 1.00365 
78 86.8 1 10.0025 31.2585 1.70389 
380 67 2 13.0222 28.2973 2.772 
381 15 3 13.1784 30.1898 4.677 
382 29 4 11.1317 26.4066 1.32345 
257 67 2 -28.7637 -24.5291 18.0106 
258 15 3 -26.1854 -25.2764 18.1809 
259 29 4 -31.4479 -24.5888 19.4383 
134 67 2 -16.0867 -30.8016 16.399 
135 15 3 -14.4377 -28.6766 16.3867 
136 29 4 -16.4474 -33.6371 17.4368 
162 15 3 -8.11597 -29.1262 17.0498 
388 29 4 -20.3686 -39.2215 9.87559 
399 15 3 -8.88322 -27.9027 17.2659 
14 86.8 1 4.3055 -37.4315 9.39068 
146 67 2 -4.41535 -25.7301 10.722 
148 29 4 -1.77661 -26.5191 12.0111 
161 67 2 -6.8918 -31.2178 15.883 
163 29 4 -6.23186 -34.1709 16.1843 
398 67 2 -6.64587 -28.9261 18.3529 
400 29 4 -5.4959 -30.2602 20.8318 
32 86.8 1 22.9409 -32.624 9.22324 
80 86.8 1 13.7113 -33.4854 11.4939 
284 67 2 22.375 -30.9354 20.1267 
286 29 4 19.3574 -31.3114 20.116 
368 67 2 21.4582 -32.4485 23.0089 
370 29 4 22.0334 -34.867 21.2576 
377 67 2 19.7636 -26.392 13.2584 
378 15 3 22.04 -25.2353 14.1038 
379 29 4 18.2809 -29.0366 13.0232 
47 86.8 1 26.406 -34.2893 19.643 
171 15 3 33.7768 -28.1313 23.0231 
269 67 2 28.4951 -24.7074 10.7812 
270 15 3 31.1542 -25.0267 10.5325 
271 29 4 25.9105 -26.0895 11.5918 
285 15 3 24.6201 -31.3534 21.5478 
30 86.8 1 -35.8338 -18.1154 14.9413 
8 86.8 1 -17.9652 -21.7039 22.7922 
5 86.8 1 -0.514897 -13.8698 11.0873 
147 15 3 -6.19312 -23.7315 10.4389 
11 86.8 1 26.393 -12.3701 14.9609 
152 67 2 -17.765 7.00213 12.3528 
153 15 3 -15.2213 7.6051 11.7198 
154 29 4 -19.5763 4.84404 13.4971 
215 67 2 -18.2647 6.44077 12.9538 
216 15 3 -19.4098 4.25586 11.8816 
44 86.8 1 0.238317 5.39898 20.6911 
92 86.8 1 19.8203 0.514581 8.55596 
145 29 4 10.8643 6.9113 23.9775 
212 67 2 19.1917 -0.0486527 22.6633 
213 15 3 19.3608 -2.72683 22.4801 
214 29 4 20.5515 2.56527 21.9111 
280 29 4 23.9962 0.474963 14.859 
71 86.8 1 24.0238 7.84507 12.1443 
278 67 2 26.6793 -0.166648 16.1383 
279 15 3 28.877 -1.70494 15.9422 
40 86.8 1 -33.0376 16.9085 21.8025 
188 67 2 -32.7653 18.4811 15.581 
189 15 3 -35.3887 18.3981 16.1687 
190 29 4 -29.9733 18.0151 16.6921 
70 86.8 1 -12.6038 8.11709 23.8534 
85 86.8 1 -16.6639 10.3109 15.8374 
125 67 2 -19.2047 11.3133 12.8751 
126 15 3 -20.9616 11.0674 10.8534 
127 29 4 -17.1077 13.1354 14.112 
217 29 4 -17.1443 9.19729 12.3263 
256 29 4 -8.31646 10.8644 11.1485 
362 67 2 -14.2418 17.7853 13.5867 
363 15 3 -11.813 17.5059 14.708 
364 29 4 -17.1098 16.7754 13.632 
46 86.8 1 4.15614 12.2387 15.538 
233 67 2 3.40602 20.6186 18.6117 
234 15 3 2.13294 22.2759 16.9184 
235 29 4 3.03257 18.7546 20.9852 
254 67 2 -5.37659 10.9856 10.3805 
255 15 3 -2.95515 11.8665 11.1522 
301 29 4 -24.0265 33.0969 14.2718 
98 86.8 1 -11.2175 26.8465 8.47991 
299 67 2 -21.7605 33.4323 12.2718 
300 15 3 -19.1086 33.1602 11.9144 
386 67 2 -19.0101 38.5765 11.4734 
387 15 3 -18.7759 37.4842 13.9202 
57 86.8 1 10.5828 25.5574 23.4106 
24 86.8 1 25.9009 35.8006 20.0383 
50 86.8 1 37.1386 27.9508 8.75969 
240 15 3 34.8691 28.6466 22.4839 
296 67 2 37.1258 36.9918 21.3974 
297 15 3 39.7746 37.1171 21.8477 
298 29 4 34.574 35.4922 22.0953 
21 86.8 1 -21.1885 -35.1457 26.4985 
61 86.8 1 -11.0117 -33.4219 38.8597 
97 86.8 1 -11.7165 -38.4245 39.6257 
19 86.8 1 -6.79422 -30.4281 34.6635 
22 86.8 1 0.331293 -31.9656 34.3006 
45 86.8 1 -4.08161 -39.6859 39.3362 
122 67 2 -1.18749 -27.4951 29.6473 
123 15 3 -3.64463 -27.1462 28.6103 
124 29 4 0.514636 -29.3041 31.4017 
194 67 2 9.77863 -26.6274 26.0619 
195 15 3 11.0162 -25.7057 28.265 
196 29 4 9.64481 -28.9427 24.0951 
369 15 3 20.6472 -31.6678 25.4518 
170 67 2 35.6574 -27.8252 24.9217 
172 29 4 36.5453 -26.0906 27.2561 
220 29 4 30.9204 -37.9912 28.7973 
12 86.8 1 8.19587 -12.022 26.709 
75 86.8 1 28.1971 -11.2168 38.8728 
338 67 2 33.8193 -8.10196 29.833 
340 29 4 31.754 -10.2594 30.4051 
101 67 2 -38.1057 -3.11269 31.6898 
102 15 3 -37.703 -3.17059 29.031 
103 29 4 -39.7866 -4.24956 33.9546 
25 86.8 1 -16.831 1.22978 28.9206 
308 67 2 -12.1354 4.72569 31.4607 
309 15 3 -9.45752 4.86115 31.6741 
310 29 4 -14.577 3.02787 32.0955 
311 67 2 -8.33605 3.80723 30.7958 
313 29 4 -9.22704 4.63537 33.5828 
64 86.8 1 4.17441 -0.67838 38.4698 
65 86.8 1 2.20876 2.59097 26.4266 
155 67 2 -1.49194 -2.96999 30.3131 
156 15 3 -3.43845 -1.12111 30.1472 
157 29 4 -0.739257 -5.65651 31.5228 
312 15 3 -6.31201 2.74403 29.3789 
356 67 2 5.45058 -3.79113 33.2258 
357 15 3 4.74711 -2.00563 35.1105 
358 29 4 4.70966 -6.44931 31.9482 
13 86.8 1 18.8545 7.20409 39.2077 
86 86.8 1 19.9824 3.3817 36.2447 
339 15 3 36.4113 -7.4368 30.1047 
33 86.8 1 -24.9414 9.94055 30.8116 
76 86.8 1 -25.2933 15.1958 35.6656 
121 29 4 -33.8408 19.7765 39.377 
79 86.8 1 -2.75482 19.66 25.0285 
100 86.8 1 1.70952 11.9831 39.3239 
137 67 2 2.68142 23.1159 38.6138 
139 29 4 4.49549 22.5237 36.2462 
53 86.8 1 23.5434 14.4011 39.1676 
143 67 2 10.5597 9.819 24.814 
144 15 3 11.8496 11.9336 25.8624 
281 67 2 10.4425 11.8495 38.4056 
282 15 3 9.74565 13.2565 36.2216 
283 29 4 12.0005 9.42923 39.3864 
68 86.8 1 36.5527 21.9976 33.2776 
73 86.8 1 37.2191 20.6028 31.9442 
87 86.8 1 -35.9264 24.2111 36.2895 
237 15 3 -24.2842 32.5602 39.0515 
107 67 2 -14.0457 34.5657 35.9556 
108 15 3 -14.3124 35.0711 33.3272 
109 29 4 -14.9319 35.4259 38.7344 
236 67 2 -23.2428 31.3113 36.909 
238 29 4 -20.6533 30.3816 35.6138 
66 86.8 1 -7.33822 26.5907 29.5886 
323 67 2 -1.07234 29.989 37.8333 
324 15 3 0.72697 29.5377 35.8856 
35 86.8 1 29.1662 36.7299 38.7815 
51 86.8 1 24.0727 29.3991 30.5024 
72 86.8 1 28.9513 25.0727 36.8583 
83 86.8 1 25.3053 26.4002 28.3425 
218 67 2 31.8098 39.2725 27.813 
219 15 3 33.8224 37.4885 27.8526 
239 67 2 36.3645 29.45 24.5704 
241 29 4 37.3979 31.8844 26.0714 
ITEM: TIMESTEP
2000
ITEM: NUMBER OF ATOMS
400
ITEM: BOX BOUNDS pp pp pp
-3.9178781360416018e+01 3.9178781360416018e+01
-3.9178781360416018e+01 3.9178781360416018e+01
-3.9178781360416018e+01 3.9178781360416018e+01
ITEM: ATOMS id mass type x y z 
99 86.8 1 -37.9372 -25.8811 -37.6227 
158 67 2 -38.7714 -31.9347 -38.0146 
202 29 4 -32.3467 -38.3928 -19.8856 
261 15 3 -25.8605 -25.2435 -21.0887 
260 67 2 -23.4208 -24.4349 -20.2972 
262 29 4 -20.7825 -23.2217 -21.2414 
374 67 2 -10.974 -36.5234 -38.5161 
376 29 4 -10.617 -37.2626 -35.5874 
67 86.8 1 18.2473 -36.0672 -21.5505 
160 29 4 38.5123 -32.5985 -35.2415 
60 86.8 1 -36.3068 -4.56512 -33.2656 
95 86.8 1 -37.3092 -1.75509 -38.2168 
316 29 4 -20.2093 -5.68756 -27.3314 
39 86.8 1 -15.3987 -8.24887 -31.2208 
352 29 4 -15.6257 -1.49106 -32.3516 
15 86.8 1 -11.3006 -6.11146 -34.5799 
314 67 2 -17.5036 -5.7435 -25.9337 
315 15 3 -15.9991 -4.47204 -24.0945 
350 67 2 -13.815 -2.2858 -30.034 
351 15 3 -13.8022 -3.36007 -27.5637 
229 29 4 -11.1628 -3.89686 -23.1553 
227 67 2 -12.534 -1.2063 -23.5732 
305 67 2 -18.2577 -2.0609 -20.6073 
306 15 3 -16.9353 -0.275773 -22.1343 
344 67 2 15.9945 -14.3061 -34.3109 
346 29 4 15.0458 -17.0816 -35.1111 
345 15 3 18.1463 -12.6766 -34.3363 
140 67 2 20.7805 -12.8583 -38.4739 
141 15 3 20.8627 -15.221 -37.1832 
142 29 4 20.3937 -9.86912 -38.0445 
191 67 2 22.1756 -14.4895 -32.3929 
192 15 3 21.3829 -12.2408 -33.642 
193 29 4 22.6331 -17.4617 -32.8282 
93 86.8 1 38.6058 -9.18147 -32.6928 
20 86.8 1 28.1579 -14.3204 -30.5346 
110 67 2 26.9392 -12.3671 -36.2822 
111 15 3 24.4895 -11.6206 -35.4272 
112 29 4 28.497 -14.6891 -37.4826 
90 86.8 1 -27.9674 15.4514 -38.992 
59 86.8 1 -17.9049 0.524528 -26.2076 
228 15 3 -13.9202 0.744305 -22.3442 
130 29 4 -5.6583 1.40602 -21.2982 
23 86.8 1 13.109 11.1498 -38.9771 
13 86.8 1 18.7795 11.2495 -38.1161 
100 86.8 1 9.30907 15.0145 -37.1873 
281 67 2 15.2218 16.3151 -36.3616 
282 15 3 13.7148 16.1588 -38.5849 
283 29 4 15.6138 15.1195 -33.5937 
394 29 4 22.457 17.7476 -31.0394 
53 86.8 1 20.4149 19.2205 -37.6026 
119 67 2 -25.7991 21.1298 -38.2881 
121 29 4 -28.3502 22.258 -37.075 
42 86.8 1 -27.4335 38.964 -24.3812 
94 86.8 1 -30.3857 34.0419 -23.8299 
237 15 3 -19.9741 30.1537 -38.9438 
37 86.8 1 -25.4126 34.7593 -21.1168 
201 15 3 -29.3636 35.3981 -19.7202 
26 86.8 1 -13.5612 36.0148 -32.4941 
221 67 2 -9.99267 34.1547 -37.8986 
223 29 4 -11.753 31.7791 -37.1934 
109 29 4 -17.4759 37.8427 -37.6971 
17 86.8 1 -5.64078 29.8541 -35.7919 
138 15 3 -2.3175 28.4925 -37.8941 
4 86.8 1 -0.263276 31.8558 -36.4544 
45 86.8 1 -5.6517 38.3882 -38.9062 
49 86.8 1 10.6336 20.0327 -34.6501 
69 86.8 1 18.6221 21.4749 -27.0605 
320 67 2 16.2331 22.1481 -32.7395 
321 15 3 17.7641 20.5456 -31.1951 
322 29 4 16.2775 23.8969 -35.2241 
34 86.8 1 11.2427 37.4674 -32.2976 
230 67 2 14.7195 32.5195 -31.0992 
231 15 3 15.8598 32.3635 -28.6697 
232 29 4 15.1545 31.8684 -34.0326 
302 67 2 18.1796 27.3955 -29.076 
303 15 3 16.2653 29.1384 -28.3314 
179 67 2 17.8423 38.0606 -26.0254 
181 29 4 14.9139 38.3411 -26.7873 
173 67 2 16.8697 31.7284 -24.3199 
175 29 4 14.017 30.765 -24.1727 
52 86.8 1 18.5662 25.8233 -23.1913 
174 15 3 18.817 32.949 -22.9202 
371 67 2 18.2435 36.3015 -19.707 
392 67 2 22.4535 20.6215 -32.0141 
393 15 3 20.8695 22.773 -32.4082 
84 86.8 1 26.1437 23.0948 -27.8017 
63 86.8 1 20.3295 33.537 -29.1779 
304 29 4 21.1606 27.1125 -29.5832 
180 15 3 19.5142 37.3994 -24.0278 
9 86.8 1 22.6177 34.4172 -23.9036 
372 15 3 20.0915 34.5193 -20.507 
318 15 3 21.1014 31.5739 -21.2642 
342 15 3 -34.3701 -25.5331 -8.50581 
36 86.8 1 -37.5657 -23.8603 -10.8476 
337 29 4 -35.1203 -30.157 -10.651 
341 67 2 -33.1498 -24.0736 -6.59396 
343 29 4 -32.5022 -24.0012 -3.62682 
54 86.8 1 -28.3824 -27.9596 -7.27577 
335 67 2 -33.9607 -30.3219 -7.84182 
336 15 3 -32.847 -28.8433 -5.88295 
184 29 4 -39.0708 -28.2336 -3.05338 
182 67 2 -39.1899 -26.7403 -5.7027 
1 86.8 1 -38.0293 -22.3417 -0.25455 
185 67 2 -38.401 -20.1212 -5.95721 
186 15 3 -38.9477 -22.3055 -4.46823 
27 86.8 1 -5.05443 -32.7974 -16.8504 
115 29 4 1.99307 -32.2606 -2.53865 
113 67 2 4.82888 -31.2712 -3.02073 
114 15 3 6.29971 -29.0306 -3.28131 
242 67 2 4.22143 -25.396 -5.90471 
243 15 3 3.48256 -27.0677 -3.93534 
204 15 3 5.42762 -26.6012 -1.41515 
226 29 4 10.5935 -26.8395 -2.34584 
244 29 4 5.43015 -22.6671 -6.47772 
62 86.8 1 -0.0194183 -22.0236 -2.53837 
82 86.8 1 35.2739 -23.5023 -9.22405 
273 15 3 31.3001 -24.2052 -7.99037 
293 67 2 32.6686 -28.0705 -5.90953 
295 29 4 30.2591 -29.0982 -4.36656 
183 15 3 38.683 -24.3649 -6.86934 
294 15 3 34.6011 -26.1867 -5.91743 
272 67 2 29.4369 -22.402 -7.26534 
274 29 4 27.5939 -21.557 -4.99514 
349 29 4 33.7077 -23.2495 -0.33865 
347 67 2 34.6742 -22.4758 -3.11453 
348 15 3 36.3749 -23.1277 -5.09604 
81 86.8 1 -19.8574 -16.1108 -1.28812 
77 86.8 1 -7.67541 -16.4749 -16.761 
307 29 4 -17.8746 -4.53348 -18.8701 
199 29 4 -13.0859 -15.5866 -1.09008 
359 67 2 -12.441 -8.56716 -3.68465 
360 15 3 -12.3599 -11.2617 -3.73261 
361 29 4 -13.2428 -6.17622 -1.97392 
104 67 2 5.07331 -19.245 -0.186137 
105 15 3 6.838 -18.0963 -1.87004 
149 67 2 7.55517 -13.338 -0.687046 
151 29 4 6.94658 -13.0244 -3.64852 
131 67 2 13.2563 -16.7358 -2.20894 
132 15 3 15.1317 -15.878 -0.489376 
133 29 4 11.6521 -19.1477 -3.14806 
6 86.8 1 23.3625 -12.7601 -14.2579 
187 29 4 38.7165 -18.0236 -7.76133 
28 86.8 1 37.4871 -17.3787 -0.990925 
3 86.8 1 -35.5894 14.0141 -17.747 
333 15 3 -29.7516 9.26745 -3.93704 
18 86.8 1 -27.3016 8.84603 -7.31767 
164 67 2 -30.2027 14.2232 -6.68355 
165 15 3 -29.4137 12.1085 -5.21529 
178 29 4 -24.0809 12.8263 -2.90361 
332 67 2 -32.3765 8.78805 -3.61268 
334 29 4 -35.0099 10.0335 -2.74455 
166 29 4 -32.6154 15.8974 -7.48325 
167 67 2 -29.3518 17.5813 -0.991438 
168 15 3 -26.6773 17.3516 -1.20941 
176 67 2 -26.6237 11.6789 -1.68273 
177 15 3 -29.3154 11.7576 -1.86073 
56 86.8 1 -13.8951 1.22154 -18.07 
128 67 2 -7.98662 1.56502 -19.3377 
129 15 3 -8.67745 1.38995 -16.7433 
31 86.8 1 -4.77079 1.16108 -14.1461 
353 67 2 -0.113261 12.4655 -2.96674 
355 29 4 -2.47063 14.392 -2.9764 
327 15 3 5.49014 15.943 -2.06591 
354 15 3 1.44401 10.9469 -1.38654 
208 29 4 7.37073 10.2124 -1.54445 
326 67 2 5.26338 16.2767 -4.73075 
328 29 4 3.52456 17.4187 -6.94857 
277 29 4 11.1137 17.055 -0.393668 
58 86.8 1 24.3862 5.76286 -7.76112 
383 67 2 25.7234 13.227 -13.9119 
384 15 3 25.345 15.8436 -14.4248 
385 29 4 25.1032 10.984 -11.9445 
91 86.8 1 29.5529 15.4324 -9.47394 
43 86.8 1 23.1979 0.902674 -4.95348 
7 86.8 1 27.0735 4.59048 -2.78118 
265 29 4 32.6491 7.16786 -0.0786066 
200 67 2 -30.492 37.7303 -18.9718 
211 29 4 -20.1333 33.9166 -17.1657 
209 67 2 -18.4394 34.8694 -14.8096 
210 15 3 -16.0233 35.8093 -14.1063 
319 29 4 18.0433 29.3133 -17.3707 
373 29 4 15.2845 36.6713 -19.1149 
380 67 2 6.85265 22.5528 -3.10018 
382 29 4 4.31888 23.1614 -1.52152 
2 86.8 1 9.24591 27.9528 -4.19483 
381 15 3 9.26403 23.5332 -3.79412 
317 67 2 20.4092 30.1533 -19.0855 
258 15 3 -26.5089 -24.1758 17.2756 
259 29 4 -31.5088 -24.612 19.4318 
21 86.8 1 -20.3272 -35.2449 17.6327 
257 67 2 -29.0574 -23.6194 17.9172 
135 15 3 -13.2956 -31.2387 19.3563 
162 15 3 -10.1669 -29.3861 16.6758 
388 29 4 -16.0275 -33.8897 12.8035 
399 15 3 -10.6222 -28.9193 19.7198 
161 67 2 -9.93215 -32.0047 16.1006 
163 29 4 -8.46429 -34.5734 16.82 
8 86.8 1 -14.2928 -27.2817 18.3768 
147 15 3 -8.15406 -27.5295 18.1737 
386 67 2 -14.9657 -36.3518 14.2499 
387 15 3 -15.59 -38.8576 15.0017 
146 67 2 -5.46532 -27.663 18.0408 
148 29 4 -3.0494 -29.2191 19.046 
203 67 2 3.72264 -25.9164 0.565779 
205 29 4 2.86564 -26.5936 3.40292 
225 15 3 7.68311 -28.4818 1.94817 
14 86.8 1 6.08421 -32.3676 2.95822 
224 67 2 9.74209 -28.2074 0.230849 
290 67 2 11.7996 -26.9656 6.4868 
291 15 3 12.6473 -26.8843 3.93075 
250 29 4 16.8448 -24.3915 1.89933 
74 86.8 1 8.39199 -23.0968 3.03035 
248 67 2 14.3154 -22.7638 2.29636 
249 15 3 12.4719 -21.9775 4.09787 
292 29 4 10.5244 -25.3128 8.72084 
80 86.8 1 12.2939 -28.69 14.0013 
284 67 2 18.8276 -32.1154 14.816 
286 29 4 16.3185 -33.5369 15.7583 
377 67 2 17.2632 -27.0905 10.7298 
378 15 3 17.5286 -25.3511 12.758 
379 29 4 18.7671 -28.3914 8.43036 
194 67 2 16.7911 -26.1958 17.2126 
195 15 3 16.3483 -28.2985 15.5839 
38 86.8 1 16.1301 -21.6595 8.01124 
196 29 4 17.1926 -23.1812 17.2388 
370 29 4 22.9754 -37.1623 18.6529 
269 67 2 22.8525 -26.9495 14.6343 
270 15 3 20.6611 -25.9413 13.4422 
285 15 3 21.28 -31.3075 15.5936 
369 15 3 21.8551 -31.8294 18.7207 
47 86.8 1 24.8053 -32.9666 13.749 
171 15 3 26.9558 -34.2799 17.2187 
271 29 4 24.1009 -27.4953 17.3504 
170 67 2 28.9502 -32.9613 18.4645 
32 86.8 1 20.6251 -22.0894 11.5575 
30 86.8 1 -32.8599 -19.3944 15.2793 
16 86.8 1 -8.95897 -10.5826 1.07057 
48 86.8 1 -17.4456 -17.5329 3.75373 
197 67 2 -14.5287 -13.2508 0.233872 
198 15 3 -14.795 -10.5746 0.180702 
106 29 4 3.38371 -18.7304 2.3034 
150 15 3 7.40789 -15.058 1.38309 
5 86.8 1 6.04316 -13.3771 5.23767 
365 67 2 10.428 -17.5498 3.71083 
366 15 3 10.6985 -15.8677 1.62041 
367 29 4 10.7416 -17.8251 6.72184 
395 67 2 17.1518 -17.0389 3.38954 
396 15 3 14.8527 -17.6812 2.12375 
397 29 4 18.2829 -15.7098 5.87816 
287 67 2 13.2017 -11.9101 2.38613 
288 15 3 13.6046 -14.5133 1.82641 
289 29 4 11.8407 -10.0421 4.35837 
11 86.8 1 25.4805 -12.0192 14.2885 
280 29 4 20.3198 -0.481419 11.894 
169 29 4 -31.7775 16.3555 0.372477 
251 67 2 -25.1552 15.6222 3.5359 
253 29 4 -23.5022 18.1648 3.29666 
252 15 3 -27.1008 14.1983 2.32489 
152 67 2 -19.8426 5.57201 13.8028 
154 29 4 -22.3379 5.8234 12.0783 
40 86.8 1 -26.7458 18.575 14.388 
188 67 2 -23.7249 15.4968 10.1556 
189 15 3 -23.5264 17.8927 11.3707 
190 29 4 -25.2612 12.8681 10.1495 
389 67 2 -11.3214 18.5769 5.99874 
390 15 3 -13.218 19.3162 4.23321 
364 29 4 -17.5635 14.516 6.70355 
254 67 2 -10.3041 12.1252 7.09149 
255 15 3 -12.2766 13.7707 6.26308 
10 86.8 1 -17.6265 1.2204 9.98406 
153 15 3 -17.2493 6.26689 13.9692 
217 29 4 -15.6538 7.25601 8.02461 
391 29 4 -10.0949 19.2402 8.70786 
215 67 2 -14.6888 8.38062 10.6772 
216 15 3 -15.369 9.94078 12.7619 
70 86.8 1 -15.1904 8.60696 16.8446 
85 86.8 1 -12.8651 13.1407 14.1559 
125 67 2 -19.1824 12.1382 13.8508 
126 15 3 -18.0477 11.3591 11.5302 
127 29 4 -19.3088 14.3968 15.8744 
256 29 4 -8.38952 11.5832 9.38702 
362 67 2 -15.7803 14.8569 9.13254 
363 15 3 -13.2223 14.6882 9.96552 
29 86.8 1 0.0184848 12.6397 3.21363 
88 86.8 1 2.33531 17.1944 0.633574 
206 67 2 5.55918 11.838 0.279558 
207 15 3 3.15836 13.0491 0.407214 
276 15 3 6.15181 18.9942 0.694933 
275 67 2 8.50585 17.7361 1.01593 
144 15 3 17.5859 7.10923 18.9264 
46 86.8 1 2.3297 13.5038 15.2374 
233 67 2 4.06267 18.2697 18.8736 
245 67 2 26.918 6.84399 5.7457 
246 15 3 29.0126 5.65214 6.95636 
247 29 4 25.2035 6.79696 3.23246 
329 67 2 30.2452 1.49437 4.11528 
330 15 3 29.3844 3.36615 2.37087 
331 29 4 31.4805 1.15167 6.8764 
263 67 2 32.7367 7.30599 2.95502 
264 15 3 31.6465 6.25236 5.19143 
92 86.8 1 24.7668 1.12087 6.97266 
89 86.8 1 22.0445 5.51935 9.31706 
212 67 2 21.4404 4.39925 17.7422 
213 15 3 19.7153 3.2531 19.4679 
214 29 4 21.8022 6.77829 15.873 
278 67 2 23.0933 0.363838 12.8233 
71 86.8 1 27.3899 4.34032 11.2959 
279 15 3 24.4626 2.39586 13.9462 
301 29 4 -21.601 38.3235 13.108 
96 86.8 1 -13.8495 23.788 4.2137 
98 86.8 1 -16.6128 20.959 8.38847 
299 67 2 -18.8522 37.131 12.5279 
300 15 3 -16.2237 37.7017 12.4555 
78 86.8 1 10.4172 25.4715 0.91108 
234 15 3 3.5526 20.8851 18.4825 
50 86.8 1 36.5791 27.4153 8.55605 
298 29 4 30.3166 38.3609 18.8268 
159 15 3 -37.9087 -29.9295 38.7775 
134 67 2 -14.9326 -33.2282 20.1728 
136 29 4 -14.9543 -35.9637 21.502 
398 67 2 -9.98612 -29.5358 22.2581 
375 15 3 -10.0497 -36.9474 37.3489 
400 29 4 -8.8335 -31.7301 24.0066 
61 86.8 1 -12.2272 -35.7963 33.7857 
19 86.8 1 -8.66403 -32.3118 30.6329 
268 29 4 -5.08162 -37.5211 32.7425 
266 67 2 -6.19018 -35.921 35.0897 
267 15 3 -6.96477 -36.103 37.6621 
22 86.8 1 -4.84436 -29.996 34.2367 
122 67 2 -3.70882 -29.3656 28.173 
123 15 3 -6.08847 -28.4602 27.296 
124 29 4 -1.95004 -31.8371 28.3599 
368 67 2 22.6624 -34.2622 19.5479 
296 67 2 32.2079 -38.5682 20.7318 
297 15 3 32.9332 -38.3814 23.3221 
172 29 4 29.713 -31.5884 21.0677 
220 29 4 25.07 -36.9876 26.0533 
218 67 2 28.0551 -36.9351 25.5018 
219 15 3 30.1875 -38.4521 24.8781 
155 67 2 -3.31597 -1.99522 30.6226 
156 15 3 -2.36984 -0.283634 28.7784 
157 29 4 -4.38098 -2.18707 33.4691 
55 86.8 1 14.7264 -12.77 38.0873 
12 86.8 1 3.89303 -3.91445 26.5465 
356 67 2 2.75972 -3.47404 32.6061 
357 15 3 1.33139 -1.3197 31.8584 
358 29 4 2.65247 -6.50927 32.8176 
75 86.8 1 25.558 -10.8594 36.1514 
338 67 2 31.4936 -9.14108 35.6655 
340 29 4 31.2133 -7.75147 38.3686 
339 15 3 32.762 -9.02174 33.2964 
101 67 2 36.5631 -5.57309 33.7207 
102 15 3 34.0072 -6.06139 33.033 
103 29 4 38.7489 -6.33741 35.6999 
33 86.8 1 -24.2412 17.5523 35.3625 
76 86.8 1 -29.8027 19.1907 35.4844 
25 86.8 1 -12.3259 6.04706 28.0382 
308 67 2 -9.10249 0.823343 29.0402 
310 29 4 -9.06968 0.334162 26.0364 
44 86.8 1 -2.50773 0.00820005 24.5891 
309 15 3 -7.50981 1.44588 31.138 
311 67 2 -3.66812 4.31652 29.2518 
313 29 4 -4.60043 5.96284 31.6348 
312 15 3 -4.2145 2.07887 27.8505 
145 29 4 15.0404 3.07587 21.5677 
143 67 2 15.7199 5.78686 20.3505 
235 29 4 4.69094 16.1853 21.0073 
64 86.8 1 0.47264 2.28934 33.7783 
65 86.8 1 1.62428 1.05759 28.3404 
86 86.8 1 16.3731 6.87226 37.3396 
120 15 3 -24.1642 21.2633 37.9327 
87 86.8 1 -25.7711 22.995 34.215 
118 29 4 -24.656 28.5429 38.1058 
116 67 2 -22.5308 26.3622 38.1302 
117 15 3 -22.1679 23.6941 38.233 
222 15 3 -8.26975 35.1187 38.6231 
97 86.8 1 -10.1703 37.6024 35.5071 
107 67 2 -15.5214 37.2894 38.4021 
108 15 3 -13.4414 35.7468 37.6634 
236 67 2 -18.0067 31.1318 37.8539 
238 29 4 -16.7209 30.9295 35.1076 
325 29 4 -5.54951 33.1872 34.5668 
137 67 2 -1.78678 26.7552 38.4882 
139 29 4 -1.48912 26.436 35.4703 
66 86.8 1 -7.84577 27.7446 37.6459 
323 67 2 -4.28278 32.8729 37.3099 
324 15 3 -3.42432 31.0757 39.1122 
79 86.8 1 0.167781 21.1503 22.656 
57 86.8 1 5.35261 23.4797 21.7102 
24 86.8 1 25.2704 35.9117 22.2878 
41 86.8 1 33.0812 35.7944 33.4182 
240 15 3 28.128 36.5602 25.4198 
68 86.8 1 33.0118 29.3528 28.239 
73 86.8 1 34.4842 24.0841 30.3052 
35 86.8 1 28.5446 38.2046 30.849 
51 86.8 1 24.9383 34.9313 27.8342 
72 86.8 1 29.1088 32.5132 30.9297 
83 86.8 1 27.7241 30.0668 25.8967 
239 67 2 30.5773 35.449 25.6167 
241 29 4 33.3964 35.9456 26.6341 
ITEM: TIMESTEP
4000
ITEM: NUMBER OF ATOMS
400
ITEM: BOX BOUNDS pp pp pp
-3.8315912007711454e+01 3.8315912007711454e+01
-3.8315912007711454e+01 3.8315912007711454e+01
-3.8315912007711454e+01 3.8315912007711454e+01
ITEM: ATOMS id mass type x y z 
99 86.8 1 -37.0991 -25.2595 -36.7594 
158 67 2 -37.9218 -31.2777 -37.1883 
202 29 4 -31.6766 -37.4905 -19.2472 
261 15 3 -25.3748 -24.7031 -20.7155 
260 67 2 -22.9619 -23.8729 -19.8707 
262 29 4 -20.3193 -22.6501 -20.7642 
374 67 2 -10.4578 -35.5624 -37.6528 
376 29 4 -10.1718 -36.2961 -34.7192 
67 86.8 1 17.7048 -35.1827 -21.194 
160 29 4 37.6908 -31.8571 -34.3819 
60 86.8 1 -35.5029 -4.48973 -32.5525 
95 86.8 1 -36.5858 -1.68533 -37.4521 
316 29 4 -19.8894 -5.30428 -26.7591 
39 86.8 1 -14.9904 -8.12212 -30.5391 
352 29 4 -15.2806 -1.25704 -31.6519 
15 86.8 1 -10.7273 -5.8587 -33.7832 
314 67 2 -17.2416 -5.63904 -25.307 
315 15 3 -15.7517 -4.67831 -23.279 
350 67 2 -13.4477 -2.20607 -29.4226 
351 15 3 -13.4007 -3.44706 -27.0344 
229 29 4 -10.7075 -4.1615 -22.8155 
227 67 2 -12.3065 -1.57705 -22.8782 
305 67 2 -18.3116 -1.97555 -19.9487 
344 67 2 15.5857 -13.9531 -33.5225 