ITEM: TIMESTEP
1
ITEM: NUMBER OF ATOMS
13868
ITEM: BOX BOUNDS pp pp ss
0.0000000000000000e+00 4.9602167291359400e+01
0.0000000000000000e+00 2.8637824638055200e+01
-2.0000000000000000e-02 1.6136053272504097e+02
ITEM: ATOMS id type xs ys zs c_peratom fx fy fz 
1 1 0 0.1 0.000129538 -2.9768 0 0 0.00532703 
2 1 0.0166667 0.05 0.0146194 -3.30548 0 0 0.0211936 
3 1 0.0166667 0.15 0.0146313 -3.33472 0 0 -0.00451037 
4 1 0 0 0.000190552 -2.90506 0 0 0.0211278 
5 1 0.05 0.05 0.000195736 -2.87998 0 0 0.0275625 
10 1 0.05 0.15 0.000127827 -3.00615 0 0 0.0256488 
40 1 0.0666667 0.1 0.0146797 -3.31233 0 0 0.0128094 
43 1 0.0666667 0 0.0145354 -3.24379 0 0 0.0473895 
44 1 0.1 0 0.000379941 -2.5151 0 0 0.0267107 
45 1 0.116667 0.05 0.0145258 -3.24352 0 0 0.0408556 
59 1 0.116667 0.15 0.0145977 -3.27654 0 0 0.0412813 
61 1 0.1 0.1 0.000199213 -2.8681 0 0 0.022622 
62 1 0.15 0.15 0.000252317 -2.78201 0 0 0.0234275 
145 1 0.166667 0 0.0144389 -3.19036 0 0 -0.0117786 
168 1 0.166667 0.1 0.0145306 -3.27639 0 0 0.00850435 
169 1 0.2 0.1 0.000205513 -2.87168 0 0 0.054715 
170 1 0.216667 0.05 0.0146973 -3.27178 0 0 0.0441056 
171 1 0.216667 0.15 0.01477 -3.27905 0 0 0.0376138 
172 1 0.2 0 0.000316465 -2.65863 0 0 0.0508092 
173 1 0.25 0.05 0.000202151 -2.87162 0 0 0.0336252 
200 1 0.25 0.15 0.000258444 -2.77048 0 0 0.0475324 
348 1 0.266667 0.1 0.0145053 -3.25822 0 0 0.0139251 
351 1 0.266667 0 0.0146644 -3.28256 0 0 0.0350685 
352 1 0.3 0 0.000251978 -2.78233 0 0 0.0194554 
353 1 0.316667 0.05 0.0145009 -3.22603 0 0 0.0449737 
384 1 0.316667 0.15 0.0142807 -3.18055 0 0 -0.136438 
386 1 0.35 0.05 0.000318369 -2.6423 0 0 0.034988 
590 1 0.366667 0 0.014555 -3.26278 0 0 0.0364361 
625 1 0.366667 0.1 0.0145693 -3.23312 0 0 0.0466926 
626 1 0.4 0.1 0.000255582 -2.76911 0 0 0.0255029 
627 1 0.416667 0.05 0.014524 -3.27492 0 0 0.0218031 
628 1 0.416667 0.15 0.0145965 -3.27581 0 0 0.0422498 
629 1 0.4 0 0.00025245 -2.78143 0 0 0.0230559 
660 1 0.45 0.15 0.000190742 -2.89232 0 0 0.0115447 
931 1 0.466667 0.1 0.014463 -3.3001 0 0 -0.00926362 
934 1 0.466667 0 0.014495 -3.28745 0 0 0.00711054 
935 1 0.5 0 0.000248406 -2.79518 0 0 0.0188733 
936 1 0.516667 0.05 0.014626 -3.26425 0 0 0.0533201 
968 1 0.516667 0.15 0.014712 -3.30107 0 0 0.0201022 
970 1 0.5 0.1 0.000195875 -2.88049 0 0 0.0209897 
971 1 0.55 0.05 0.000257257 -2.75647 0 0 0.0131113 
972 1 0.55 0.15 0.000253088 -2.78289 0 0 0.0373076 
1297 1 0.566667 0 0.0144563 -3.23672 0 0 0.0378707 
1332 1 0.566667 0.1 0.0145361 -3.24507 0 0 0.0294946 
1333 1 0.616667 0.05 0.0145672 -3.23273 0 0 0.0448988 
1334 1 0.616667 0.15 0.0142776 -3.18108 0 0 -0.140567 
1335 1 0.6 0 0.000316594 -2.64303 0 0 0.0157911 
1336 1 0.65 0.05 0.000258125 -2.77074 0 0 0.0477141 
1748 1 0.666667 0.1 0.0145087 -3.25818 0 0 0.0148196 
1751 1 0.666667 0 0.0147387 -3.28905 0 0 0.0291736 
1752 1 0.7 0 0.000136898 -2.98193 0 0 0.0386484 
1753 1 0.716667 0.05 0.0146567 -3.32405 0 0 -0.000226187 
1785 1 0.716667 0.15 0.0146432 -3.29407 0 0 0.0261626 
1787 1 0.7 0.1 0.00019185 -2.89399 0 0 0.0232073 
1788 1 0.75 0.05 0.000123609 -3.00084 0 0 0.0131225 
1789 1 0.75 0.15 0.000131067 -2.97629 0 0 0.015037 
2234 1 0.766667 0 0.0146326 -3.33564 0 0 -0.00977566 
2269 1 0.766667 0.1 0.0146299 -3.33514 0 0 -0.0103833 
2270 1 0.8 0.1 0.000127258 -2.98809 0 0 0.0175517 
2271 1 0.816667 0.05 0.0146612 -3.32347 0 0 0.00228667 
2272 1 0.816667 0.15 0.0146608 -3.32364 0 0 0.00185732 
2273 1 0.8 0 0.000123306 -3.00116 0 0 0.0125619 
2274 1 0.85 0.05 0.000185397 -2.90299 0 0 0.0105619 
2305 1 0.85 0.15 0.000185405 -2.90292 0 0 0.0105216 
2812 1 0.866667 0.1 0.0144701 -3.29923 0 0 -0.00586706 
2815 1 0.866667 0 0.0146143 -3.30528 0 0 0.0178835 
2816 1 0.9 0 0.000187037 -2.90473 0 0 0.0165677 
2817 1 0.916667 0.05 0.0144711 -3.29889 0 0 -0.00898854 
2849 1 0.916667 0.15 0.0144714 -3.29852 0 0 -0.00868583 
2851 1 0.95 0.05 0.000187833 -2.90521 0 0 0.019692 
2852 1 0.95 0.15 0.000186467 -2.90357 0 0 0.014937 
3421 1 0.966667 0 0.0147182 -3.31532 0 0 0.0349846 
3456 1 0.966667 0.1 0.0146172 -3.30339 0 0 0.01167 
6 1 0 0.3 0.000194978 -2.88905 0 0 0.00282929 
7 1 0.0166667 0.25 0.0145708 -3.30125 0 0 0.0789197 
9 1 0 0.2 0.000129157 -2.98815 0 0 0.00798279 
11 1 0.05 0.25 0.000198877 -2.88076 0 0 0.0306467 
54 1 0.0666667 0.3 0.0145995 -3.23509 0 0 0.0798974 
57 1 0.0666667 0.2 0.0146854 -3.31175 0 0 0.014894 
58 1 0.1 0.2 0.000200662 -2.87031 0 0 0.0311 
60 1 0.116667 0.25 0.0145689 -3.2315 0 0 0.0435403 
77 1 0.1 0.3 0.000385846 -2.50202 0 0 0.0512006 
165 1 0.166667 0.2 0.0145397 -3.24622 0 0 0.0292715 
196 1 0.166667 0.3 0.0143209 -3.16746 0 0 -0.119995 
197 1 0.216667 0.25 0.0145378 -3.24537 0 0 0.0295339 
199 1 0.2 0.2 0.000262245 -2.75652 0 0 0.0535365 
201 1 0.25 0.25 0.000255232 -2.7702 0 0 0.0231558 
380 1 0.266667 0.3 0.014596 -3.27546 0 0 0.0415558 
383 1 0.266667 0.2 0.0145382 -3.24528 0 0 0.0304789 
385 1 0.316667 0.25 0.0145093 -3.25772 0 0 0.0162673 
412 1 0.3 0.3 0.000195287 -2.88228 0 0 0.0193689 
413 1 0.35 0.25 0.00025169 -2.78141 0 0 0.0328799 
622 1 0.366667 0.2 0.0145069 -3.25739 0 0 0.0155999 
655 1 0.366667 0.3 0.0147148 -3.3012 0 0 0.020374 
656 1 0.4 0.3 0.000192334 -2.89237 0 0 0.0234047 
657 1 0.416667 0.25 0.0146383 -3.2938 0 0 0.0271405 
659 1 0.4 0.2 0.000197381 -2.86881 0 0 0.0123965 
661 1 0.45 0.25 0.000188373 -2.90602 0 0 0.0180317 
963 1 0.466667 0.3 0.0144657 -3.30033 0 0 -0.00806764 
966 1 0.466667 0.2 0.0146837 -3.31276 0 0 0.0113821 
967 1 0.5 0.2 0.00013959 -2.96672 0 0 0.0380436 
969 1 0.516667 0.25 0.0146784 -3.31232 0 0 0.00996835 
998 1 0.5 0.3 0.000192102 -2.89377 0 0 0.0163145 
999 1 0.55 0.25 0.000198088 -2.88535 0 0 0.0287212 
1329 1 0.566667 0.2 0.0145058 -3.25834 0 0 0.0140336 
1362 1 0.566667 0.3 0.0146565 -3.2527 0 0 0.0606618 
1363 1 0.6 0.3 0.000324074 -2.63219 0 0 0.051854 
1364 1 0.616667 0.25 0.0145611 -3.20108 0 0 0.0749654 
1366 1 0.65 0.25 0.000385643 -2.50107 0 0 0.0379045 
1780 1 0.666667 0.3 0.0144504 -3.20923 0 0 -0.00214556 
1783 1 0.666667 0.2 0.0145308 -3.21315 0 0 0.061229 
1784 1 0.7 0.2 0.000255359 -2.769 0 0 0.0290765 
1786 1 0.716667 0.25 0.0145345 -3.27565 0 0 0.0115663 
1815 1 0.75 0.25 0.000188143 -2.90616 0 0 0.0221495 
2266 1 0.766667 0.2 0.0146578 -3.32358 0 0 0.00124441 
2300 1 0.766667 0.3 0.0146159 -3.30575 0 0 0.016577 
2301 1 0.8 0.3 0.000126909 -2.98986 0 0 0.00944641 
2302 1 0.816667 0.25 0.0146254 -3.33438 0 0 -0.00950562 
2304 1 0.8 0.2 0.000124656 -3.00322 0 0 0.0161299 
2306 1 0.85 0.25 0.000129122 -2.97663 0 0 0.00284442 
2844 1 0.866667 0.3 0.0146144 -3.30553 0 0 0.0183365 
2847 1 0.866667 0.2 0.0146143 -3.30517 0 0 0.0177786 
2848 1 0.9 0.2 0.000186908 -2.905 0 0 0.0159649 
2877 1 0.9 0.3 0.000187091 -2.90427 0 0 0.0173201 
2850 1 0.916667 0.25 0.0146943 -3.31241 0 0 0.0172542 
2878 1 0.95 0.25 0.000136006 -2.97723 0 0 0.0284058 
3453 1 0.966667 0.2 0.0146876 -3.32719 0 0 0.0299999 
3482 1 0.966667 0.3 0.0146412 -3.30762 0 0 0.0749613 
8 1 0.0166667 0.35 0.0144659 -3.25108 0 0 0.0759447 
12 1 0 0.5 0.000193273 -2.896 0 0 0.0272441 
13 1 0.0166667 0.45 0.014516 -3.25716 0 0 0.0217626 
15 1 0 0.4 0.000255823 -2.766 0 0 0.0242403 
71 1 0.0666667 0.5 0.0145093 -3.2576 0 0 0.017004 
74 1 0.0666667 0.4 0.0143279 -3.16616 0 0 -0.112248 
75 1 0.116667 0.35 0.0144502 -3.15616 0 0 0.0133005 
76 1 0.116667 0.45 0.014514 -3.2267 0 0 0.0341249 
91 1 0.1 0.5 0.000255076 -2.76882 0 0 0.0340961 
92 1 0.15 0.45 0.000254897 -2.77016 0 0 0.0300144 
193 1 0.166667 0.4 0.0145138 -3.22684 0 0 0.0336738 
219 1 0.166667 0.5 0.0146822 -3.312 0 0 0.00866719 
198 1 0.216667 0.35 0.0145065 -3.25721 0 0 0.0151804 
220 1 0.2 0.5 0.000135644 -2.97977 0 0 0.0342377 
221 1 0.216667 0.45 0.0147129 -3.3007 0 0 0.0206759 
223 1 0.2 0.4 0.000255007 -2.76896 0 0 0.0335184 
224 1 0.25 0.35 0.000197382 -2.86855 0 0 0.0121179 
225 1 0.25 0.45 0.000192288 -2.89238 0 0 0.0228726 
405 1 0.266667 0.5 0.0144634 -3.29995 0 0 -0.00943151 
408 1 0.266667 0.4 0.0146382 -3.29387 0 0 0.0270869 
409 1 0.3 0.4 0.00018844 -2.90577 0 0 0.017626 
410 1 0.316667 0.35 0.0146814 -3.31227 0 0 0.0105452 
411 1 0.316667 0.45 0.0144631 -3.3003 0 0 -0.00945009 
414 1 0.35 0.35 0.000139556 -2.96679 0 0 0.0383272 
432 1 0.35 0.45 0.000193328 -2.8955 0 0 0.0209232 
652 1 0.366667 0.4 0.0146808 -3.31276 0 0 0.0107497 
658 1 0.416667 0.35 0.0144654 -3.30036 0 0 -0.00847803 
679 1 0.366667 0.5 0.0146577 -3.25286 0 0 0.0616145 
680 1 0.4 0.5 0.000260411 -2.7424 0 0 0.0257139 
681 1 0.416667 0.45 0.0146273 -3.26446 0 0 0.051524 
683 1 0.4 0.4 0.000192157 -2.89396 0 0 0.0166813 
684 1 0.45 0.45 0.000257485 -2.769 0 0 0.0378884 
991 1 0.466667 0.5 0.0146045 -3.25274 0 0 0.0315694 
994 1 0.466667 0.4 0.0145258 -3.27523 0 0 0.0215829 
995 1 0.5 0.4 0.000257485 -2.769 0 0 0.0378778 
996 1 0.516667 0.35 0.0146272 -3.2645 0 0 0.0514316 
997 1 0.516667 0.45 0.0146045 -3.25274 0 0 0.0315336 
1018 1 0.5 0.5 0.000263529 -2.75853 0 0 0.0582155 
1000 1 0.55 0.35 0.000260385 -2.74231 0 0 0.0254759 
1359 1 0.566667 0.4 0.0144065 -3.20387 0 0 -0.0302211 
1365 1 0.616667 0.35 0.0144994 -3.19812 0 0 -0.00153605 
1384 1 0.566667 0.5 0.0143693 -3.21632 0 0 -0.0409729 
1385 1 0.616667 0.45 0.0143777 -3.18297 0 0 -0.0169954 
1387 1 0.65 0.45 0.000314294 -2.64149 0 0 0.0196778 
1808 1 0.666667 0.5 0.0146719 -3.28199 0 0 0.0365444 
1811 1 0.666667 0.4 0.0145033 -3.22604 0 0 0.0424072 
1812 1 0.7 0.4 0.000250263 -2.781 0 0 0.0195566 
1813 1 0.716667 0.35 0.0144701 -3.26947 0 0 0.00950786 
1814 1 0.716667 0.45 0.0146835 -3.31164 0 0 0.0112797 
1834 1 0.7 0.5 0.000133683 -2.97989 0 0 0.0230356 
1816 1 0.75 0.35 0.000189076 -2.89062 0 0 0.011475 
1835 1 0.75 0.45 0.000128782 -2.98956 0 0 0.0207511 
2297 1 0.766667 0.4 0.0146577 -3.3235 0 0 0.000954824 
2303 1 0.816667 0.35 0.014658 -3.32339 0 0 0.00186465 
2324 1 0.766667 0.5 0.0146267 -3.33539 0 0 -0.0107353 
2325 1 0.8 0.5 0.000129804 -2.99329 0 0 0.0187225 
2326 1 0.816667 0.45 0.0146547 -3.32361 0 0 0.000937077 
2328 1 0.8 0.4 0.000128666 -2.98983 0 0 0.0206512 
2329 1 0.85 0.35 0.000185475 -2.90277 0 0 0.00998432 
2330 1 0.85 0.45 0.000190455 -2.8924 0 0 0.0125223 
2871 1 0.866667 0.5 0.0146309 -3.26434 0 0 0.0521667 
2874 1 0.866667 0.4 0.0144672 -3.29933 0 0 -0.00641836 
2896 1 0.9 0.5 0.0002522 -2.78106 0 0 0.0283783 
2875 1 0.916667 0.35 0.0144751 -3.29979 0 0 -0.00178699 
2876 1 0.916667 0.45 0.0144984 -3.28664 0 0 0.00437901 
2879 1 0.95 0.35 0.00019434 -2.89128 0 0 0.0229094 
2897 1 0.95 0.45 0.000198508 -2.88151 0 0 0.0377993 
3479 1 0.966667 0.4 0.0147014 -3.28645 0 0 0.0652176 
3500 1 0.966667 0.5 0.0147132 -3.30016 0 0 0.0173807 
14 1 0.0166667 0.55 0.0146067 -3.30521 0 0 0.0157926 
17 1 0.0166667 0.65 0.0146449 -3.29383 0 0 0.0308647 
19 1 0 0.6 0.000136036 -2.96836 0 0 0.0102007 
20 1 0.05 0.55 0.000195194 -2.88204 0 0 0.0194693 
21 1 0.05 0.65 0.000246565 -2.79281 0 0 0.0202898 
87 1 0.0666667 0.6 0.0146718 -3.28297 0 0 0.0375512 
88 1 0.1 0.6 0.000197329 -2.88058 0 0 0.0357985 
89 1 0.116667 0.55 0.0147125 -3.30071 0 0 0.0199151 
90 1 0.116667 0.65 0.0145023 -3.28855 0 0 -0.00305228 
93 1 0.15 0.55 0.000135743 -2.97963 0 0 0.0343221 
103 1 0.15 0.65 0.000192096 -2.89364 0 0 0.0198391 
216 1 0.166667 0.6 0.0146556 -3.32468 0 0 -0.000282272 
222 1 0.216667 0.55 0.0146557 -3.32465 0 0 7.80225e-05 
237 1 0.216667 0.65 0.0146809 -3.31233 0 0 0.00975987 
239 1 0.2 0.6 0.000127895 -3.0063 0 0 0.0249234 
240 1 0.25 0.55 0.000190749 -2.89201 0 0 0.0127841 
241 1 0.25 0.65 0.000200899 -2.86876 0 0 0.0365798 
428 1 0.266667 0.6 0.0146295 -3.26451 0 0 0.0528318 
429 1 0.3 0.6 0.000316369 -2.64165 0 0 0.0271022 
430 1 0.316667 0.55 0.014519 -3.24299 0 0 0.0494453 
431 1 0.316667 0.65 0.0144406 -3.19107 0 0 -0.00933999 
433 1 0.35 0.55 0.000320476 -2.6452 0 0 0.0517443 
676 1 0.366667 0.6 0.0145423 -3.18624 0 0 0.00973501 
682 1 0.416667 0.55 0.0144064 -3.20403 0 0 -0.0315557 
696 1 0.416667 0.65 0.014408 -3.1695 0 0 0.00387435 
1014 1 0.466667 0.6 0.0143691 -3.21658 0 0 -0.0413478 
1015 1 0.5 0.6 0.000253145 -2.76844 0 0 0.0202239 
1016 1 0.516667 0.55 0.0146608 -3.25303 0 0 0.0602188 
1017 1 0.516667 0.65 0.0146411 -3.29373 0 0 0.0257987 
1019 1 0.55 0.55 0.000253138 -2.76852 0 0 0.0202339 
1030 1 0.55 0.65 0.000132065 -2.97964 0 0 0.0110523 
1381 1 0.566667 0.6 0.0146411 -3.2937 0 0 0.0257031 
1386 1 0.616667 0.55 0.0145455 -3.27622 0 0 0.00361977 
1399 1 0.616667 0.65 0.0146543 -3.32358 0 0 0.000186881 
1401 1 0.6 0.6 0.000191944 -2.89253 0 0 0.0288009 
1402 1 0.65 0.55 0.000193205 -2.89435 0 0 0.033864 
1403 1 0.65 0.65 0.000132637 -2.97799 0 0 0.0195157 
1830 1 0.666667 0.6 0.0146565 -3.32405 0 0 4.56713e-05 
1831 1 0.7 0.6 0.000126441 -3.00465 0 0 0.0211977 
1832 1 0.716667 0.55 0.0146263 -3.33556 0 0 -0.0109912 
1833 1 0.716667 0.65 0.0146869 -3.31266 0 0 0.0107566 
1836 1 0.75 0.55 0.000127287 -2.98918 0 0 0.0106184 
1846 1 0.75 0.65 0.000196007 -2.87891 0 0 0.0329633 
2321 1 0.766667 0.6 0.0146461 -3.29446 0 0 0.0256689 
2327 1 0.816667 0.55 0.0146744 -3.28248 0 0 0.0351643 
2341 1 0.816667 0.65 0.0144316 -3.22302 0 0 -0.031898 
2343 1 0.8 0.6 0.000251224 -2.78136 0 0 0.0353004 
2344 1 0.85 0.55 0.000256636 -2.75506 0 0 0.0287977 
2893 1 0.866667 0.6 0.0144096 -3.20358 0 0 -0.029292 
2894 1 0.916667 0.55 0.0145762 -3.26494 0 0 0.0186186 
2895 1 0.916667 0.65 0.0144132 -3.2033 0 0 -0.030801 
2898 1 0.95 0.55 0.000198667 -2.88205 0 0 0.0440129 
2907 1 0.95 0.65 0.000255663 -2.76942 0 0 0.0401985 
3497 1 0.966667 0.6 0.014641 -3.29324 0 0 0.0210618 
16 1 0 0.7 0.000199027 -2.88111 0 0 0.0272254 
18 1 0.0166667 0.75 0.0144595 -3.28128 0 0 0.0554593 
25 1 0 0.8 0.000201871 -2.87788 0 0 -0.00170694 
84 1 0.0666667 0.7 0.0143555 -3.24828 0 0 -0.0491227 
99 1 0.0666667 0.8 0.0145544 -3.21411 0 0 0.104951 
100 1 0.1 0.8 0.000391615 -2.48996 0 0 0.0532642 
101 1 0.116667 0.75 0.0145206 -3.21082 0 0 0.0676259 
104 1 0.15 0.75 0.000321173 -2.62989 0 0 0.0357232 
232 1 0.166667 0.8 0.0144805 -3.17854 0 0 0.000210295 
235 1 0.166667 0.7 0.0146288 -3.26455 0 0 0.0518684 
236 1 0.2 0.7 0.000201022 -2.86846 0 0 0.0367078 
238 1 0.216667 0.75 0.0145729 -3.26455 0 0 0.0155033 
246 1 0.25 0.75 0.00025852 -2.77038 0 0 0.0470568 
425 1 0.266667 0.7 0.0145729 -3.26453 0 0 0.0169021 
439 1 0.266667 0.8 0.0146584 -3.2528 0 0 0.0606184 
440 1 0.3 0.8 0.000256599 -2.7559 0 0 0.016909 
441 1 0.316667 0.75 0.0143664 -3.21663 0 0 -0.0427663 
691 1 0.366667 0.8 0.0145708 -3.2642 0 0 0.0169457 
694 1 0.366667 0.7 0.0144076 -3.16984 0 0 0.00233149 
695 1 0.4 0.7 0.000381595 -2.5003 0 0 0.0221525 
697 1 0.416667 0.75 0.0146585 -3.25236 0 0 0.0634142 
703 1 0.4 0.8 0.000201984 -2.87046 0 0 0.0407651 
704 1 0.45 0.75 0.000196838 -2.88209 0 0 0.0313304 
1011 1 0.466667 0.7 0.0145423 -3.27617 0 0 0.00268106 
1025 1 0.466667 0.8 0.0146531 -3.32414 0 0 -0.000601139 
1026 1 0.5 0.8 0.00013268 -2.97787 0 0 0.0191261 
1027 1 0.516667 0.75 0.0146542 -3.32361 0 0 0.000165765 
1029 1 0.5 0.7 0.000191978 -2.89245 0 0 0.0284568 
1031 1 0.55 0.75 0.000129921 -2.99312 0 0 0.0186382 
1394 1 0.566667 0.8 0.0146769 -3.28315 0 0 0.0354893 
1397 1 0.566667 0.7 0.0146212 -3.33507 0 0 -0.0110931 
1398 1 0.6 0.7 0.000129921 -2.99309 0 0 0.0186517 
1400 1 0.616667 0.75 0.0146769 -3.28313 0 0 0.0353979 
1408 1 0.6 0.8 0.000254812 -2.76761 0 0 0.0411843 
1409 1 0.65 0.75 0.000250078 -2.77965 0 0 0.0283192 
1827 1 0.666667 0.7 0.0146455 -3.29462 0 0 0.0250754 
1842 1 0.666667 0.8 0.0143942 -3.2356 0 0 -0.0402648 
1843 1 0.716667 0.75 0.0145372 -3.27585 0 0 0.0136271 
1845 1 0.7 0.7 0.000196004 -2.87909 0 0 0.0329895 
1847 1 0.75 0.75 0.00024849 -2.7951 0 0 0.0225294 
2337 1 0.766667 0.8 0.0145992 -3.27613 0 0 0.0421594 
2340 1 0.766667 0.7 0.0145367 -3.27624 0 0 0.0116904 
2342 1 0.816667 0.75 0.014526 -3.24344 0 0 0.0413463 
2350 1 0.8 0.8 0.000199038 -2.86866 0 0 0.0223829 
2351 1 0.85 0.75 0.000378344 -2.514 0 0 0.0165224 
2890 1 0.866667 0.7 0.0143837 -3.14929 0 0 0.00815975 
2904 1 0.866667 0.8 0.0145292 -3.24371 0 0 0.0436966 
2905 1 0.916667 0.75 0.0144393 -3.22191 0 0 -0.028703 
2908 1 0.95 0.75 0.00025934 -2.76859 0 0 0.0473032 
3507 1 0.966667 0.8 0.014655 -3.28045 0 0 0.11972 
3510 1 0.966667 0.7 0.0147347 -3.27447 0 0 0.0673423 
22 1 0 0.9 0.000200907 -2.87451 0 0 0.00189318 
23 1 0.0166667 0.85 0.0145377 -3.25216 0 0 0.170663 
24 1 0.0166667 0.95 0.014467 -3.28181 0 0 0.0561999 
26 1 0.05 0.85 0.000321671 -2.64067 0 0 0.0268875 
96 1 0.0666667 0.9 0.0144922 -3.21109 0 0 0.0253539 
102 1 0.116667 0.85 0.0145541 -3.15167 0 0 0.0256182 
105 1 0.116667 0.95 0.0144271 -3.13678 0 0 0.0125949 
243 1 0.166667 0.9 0.0143678 -3.09937 0 0 -0.0829696 
244 1 0.216667 0.85 0.0144111 -3.20431 0 0 -0.0317481 
245 1 0.216667 0.95 0.0145789 -3.23382 0 0 0.0339448 
247 1 0.25 0.85 0.000255848 -2.77151 0 0 0.0320777 
248 1 0.25 0.95 0.00020556 -2.8581 0 0 0.0411629 
436 1 0.266667 0.9 0.0146645 -3.28247 0 0 0.0344805 
442 1 0.316667 0.85 0.0146253 -3.26433 0 0 0.0522153 
443 1 0.316667 0.95 0.0144894 -3.2875 0 0 0.00432531 
444 1 0.3 0.9 0.000196792 -2.88349 0 0 0.0177277 
445 1 0.35 0.85 0.00025224 -2.7811 0 0 0.0264376 
699 1 0.366667 0.9 0.0144944 -3.28775 0 0 0.00531292 
700 1 0.4 0.9 0.000194734 -2.87866 0 0 0.0175053 
701 1 0.416667 0.85 0.0146809 -3.31259 0 0 0.0103642 
702 1 0.416667 0.95 0.014599 -3.27676 0 0 0.042382 
705 1 0.45 0.85 0.000129203 -3.00855 0 0 0.0288123 
706 1 0.45 0.95 0.000194518 -2.87879 0 0 0.0174873 
1022 1 0.466667 0.9 0.014684 -3.3127 0 0 0.0110448 
1028 1 0.516667 0.85 0.0146454 -3.29469 0 0 0.0251673 
1032 1 0.516667 0.95 0.0145347 -3.27589 0 0 0.0125211 
1033 1 0.5 0.9 0.000195982 -2.87904 0 0 0.0323213 
1034 1 0.55 0.85 0.000250111 -2.77961 0 0 0.0280544 
1405 1 0.566667 0.9 0.0143916 -3.23573 0 0 -0.0422777 
1406 1 0.616667 0.85 0.0144338 -3.22341 0 0 -0.0288181 
1407 1 0.616667 0.95 0.0144982 -3.22543 0 0 0.0441833 
1410 1 0.65 0.95 0.000258808 -2.75654 0 0 0.028584 
1839 1 0.666667 0.9 0.0144719 -3.23842 0 0 0.0291026 
1844 1 0.716667 0.85 0.0144682 -3.26867 0 0 0.0106363 
1848 1 0.716667 0.95 0.0146854 -3.3122 0 0 0.010419 
1849 1 0.7 0.9 0.000248981 -2.77941 0 0 0.0140763 
1850 1 0.75 0.85 0.000192565 -2.87876 0 0 0.00825075 
1851 1 0.75 0.95 0.000128728 -2.98957 0 0 0.0212732 
2346 1 0.766667 0.9 0.0146551 -3.32334 0 0 0.00106097 
2347 1 0.8 0.9 0.000126144 -3.00496 0 0 0.0195289 
2348 1 0.816667 0.85 0.0146793 -3.31156 0 0 0.0109012 
2349 1 0.816667 0.95 0.0146276 -3.33493 0 0 -0.00963857 
2352 1 0.85 0.85 0.000195518 -2.88051 0 0 0.0249867 
2353 1 0.85 0.95 0.000129239 -2.97627 0 0 0.00312946 
2901 1 0.866667 0.9 0.014613 -3.30588 0 0 0.017219 
2910 1 0.9 0.9 0.000188761 -2.90605 0 0 0.0260203 
2906 1 0.916667 0.85 0.0145204 -3.28832 0 0 0.00660023 
2909 1 0.916667 0.95 0.0146953 -3.31159 0 0 0.0128449 
2911 1 0.95 0.85 0.00019762 -2.89196 0 0 0.0274436 
2912 1 0.95 0.95 0.000141022 -2.96474 0 0 0.0377997 
3512 1 0.966667 0.9 0.0146679 -3.3102 0 0 0.0935188 
27 1 0 0.1 0.0435938 -3.36178 0 0 -0.0291595 
30 1 0 0 0.0435926 -3.3242 0 0 -0.0141335 
31 1 0.0333333 0 0.0291573 -3.32614 0 0 -0.026868 
32 1 0.05 0.05 0.0435918 -3.35089 0 0 -0.000821015 
37 1 0.05 0.15 0.0435943 -3.35223 0 0 -0.004165 
39 1 0.0333333 0.1 0.0290826 -3.35886 0 0 0.011401 
41 1 0.0833333 0.05 0.0290209 -3.36576 0 0 -0.0280828 
42 1 0.0833333 0.15 0.0290711 -3.35768 0 0 0.0114704 
123 1 0.1 0 0.0435831 -3.36207 0 0 0.00250319 
140 1 0.1 0.1 0.0435886 -3.36201 0 0 -0.00933983 
141 1 0.133333 0.1 0.0291139 -3.35315 0 0 -0.0263452 
142 1 0.15 0.05 0.0435844 -3.3574 0 0 0.00451779 
143 1 0.15 0.15 0.0435864 -3.35896 0 0 -0.0086157 
144 1 0.133333 0 0.0291363 -3.34839 0 0 -0.0657003 
146 1 0.183333 0.05 0.0290935 -3.35339 0 0 -0.0268134 
166 1 0.183333 0.15 0.0290184 -3.36294 0 0 -0.0135277 
311 1 0.2 0.1 0.0435858 -3.36395 0 0 -0.0194636 
314 1 0.2 0 0.0435838 -3.3606 0 0 -0.0071734 
315 1 0.233333 0 0.0290345 -3.36027 0 0 0.000264515 
316 1 0.25 0.05 0.0435872 -3.36155 0 0 -0.0168058 
345 1 0.25 0.15 0.043585 -3.36184 0 0 -0.0125958 
347 1 0.233333 0.1 0.0290376 -3.3586 0 0 0.0059084 
349 1 0.283333 0.05 0.0291103 -3.35286 0 0 -0.0269228 
350 1 0.283333 0.15 0.0291515 -3.34828 0 0 -0.0675755 
550 1 0.3 0 0.0435865 -3.35949 0 0 -0.00767273 
585 1 0.3 0.1 0.0435837 -3.35467 0 0 0.0136242 
586 1 0.333333 0.1 0.0291461 -3.34756 0 0 -0.0675945 
587 1 0.35 0.05 0.0435833 -3.36055 0 0 -0.00684008 
588 1 0.35 0.15 0.0435837 -3.3559 0 0 0.0141433 
589 1 0.333333 0 0.0290941 -3.35582 0 0 -0.0439539 
591 1 0.383333 0.05 0.0289948 -3.36819 0 0 -0.0448153 
623 1 0.383333 0.15 0.0291105 -3.35222 0 0 -0.0267004 
891 1 0.4 0.1 0.0435858 -3.36046 0 0 -0.00888787 
894 1 0.4 0 0.0435859 -3.36019 0 0 -0.00820733 
895 1 0.433333 0 0.0291203 -3.35315 0 0 -0.0289876 
896 1 0.45 0.05 0.0435874 -3.35703 0 0 0.00613139 
928 1 0.45 0.15 0.0435886 -3.35976 0 0 -0.00969824 
930 1 0.433333 0.1 0.029121 -3.35402 0 0 -0.0327838 
932 1 0.483333 0.05 0.0291212 -3.35374 0 0 -0.0327737 
933 1 0.483333 0.15 0.029051 -3.3605 0 0 -0.00454568 
1257 1 0.5 0 0.0435867 -3.35974 0 0 -0.00544197 
1292 1 0.5 0.1 0.0435877 -3.36098 0 0 -0.0123536 
1293 1 0.533333 0.1 0.0290367 -3.36177 0 0 -0.00997769 
1296 1 0.533333 0 0.0291108 -3.35371 0 0 -0.034266 
1294 1 0.55 0.05 0.0435863 -3.35915 0 0 -0.00927697 
1295 1 0.55 0.15 0.0435859 -3.36087 0 0 -0.0090663 
1298 1 0.583333 0.05 0.0290849 -3.35619 0 0 -0.0472364 
1330 1 0.583333 0.15 0.0291513 -3.34798 0 0 -0.0678214 
1708 1 0.6 0.1 0.0435829 -3.35659 0 0 0.0118217 
1711 1 0.6 0 0.0435845 -3.35852 0 0 -0.00492947 
1712 1 0.633333 0 0.0290107 -3.36466 0 0 -0.0232744 
1747 1 0.633333 0.1 0.0291502 -3.34713 0 0 -0.0638028 
1713 1 0.65 0.05 0.0435851 -3.36211 0 0 -0.0117196 
1745 1 0.65 0.15 0.0435835 -3.35511 0 0 0.0126039 
1749 1 0.683333 0.05 0.0290464 -3.35988 0 0 -5.15358e-05 
1750 1 0.683333 0.15 0.0291108 -3.3525 0 0 -0.0257771 
2194 1 0.7 0 0.0435888 -3.36402 0 0 -0.0180273 
2229 1 0.7 0.1 0.0435884 -3.36032 0 0 -0.01047 
2230 1 0.733333 0.1 0.0290752 -3.35928 0 0 0.00836429 
2231 1 0.75 0.05 0.0435907 -3.36072 0 0 -0.0107154 
2232 1 0.75 0.15 0.0435898 -3.36152 0 0 -0.013843 
2233 1 0.733333 0 0.029079 -3.35694 0 0 0.0170074 
2235 1 0.783333 0.05 0.0290819 -3.35875 0 0 0.0101654 
2267 1 0.783333 0.15 0.0290803 -3.35782 0 0 0.0133704 
2772 1 0.8 0.1 0.04359 -3.36181 0 0 -0.0116893 
2775 1 0.8 0 0.0435908 -3.36102 0 0 -0.00962588 
2776 1 0.833333 0 0.0290768 -3.35968 0 0 0.00456174 
2777 1 0.85 0.05 0.043589 -3.35972 0 0 -0.00549027 
2809 1 0.85 0.15 0.043589 -3.35972 0 0 -0.00550302 
2811 1 0.833333 0.1 0.0290559 -3.3625 0 0 -0.0137145 
2813 1 0.883333 0.05 0.0291297 -3.35465 0 0 -0.034006 
2814 1 0.883333 0.15 0.0291297 -3.35457 0 0 -0.0339968 
3381 1 0.9 0 0.043589 -3.3642 0 0 -0.00513351 
3416 1 0.9 0.1 0.0435879 -3.35549 0 0 0.0115035 
3417 1 0.933333 0.1 0.0291314 -3.3549 0 0 -0.0306198 
3418 1 0.95 0.05 0.0435899 -3.35127 0 0 -0.0165953 
3419 1 0.95 0.15 0.0435892 -3.34972 0 0 -0.0187276 
3420 1 0.933333 0 0.0290331 -3.34943 0 0 -0.00397493 
3422 1 0.983333 0.05 0.0290506 -3.34906 0 0 0.00549081 
3454 1 0.983333 0.15 0.0290561 -3.34968 0 0 0.00526316 
35 1 0 0.2 0.0435926 -3.32228 0 0 -0.0148168 
36 1 0.0333333 0.2 0.0291105 -3.3328 0 0 0.00447553 
38 1 0.05 0.25 0.0435878 -3.32406 0 0 -0.0106515 
53 1 0.0333333 0.3 0.0293424 -3.32474 0 0 0.0251014 
55 1 0.0833333 0.25 0.0289948 -3.35352 0 0 -0.0180647 
137 1 0.1 0.2 0.0435875 -3.3652 0 0 -0.0137084 
160 1 0.1 0.3 0.0435798 -3.35142 0 0 -0.0143027 
161 1 0.133333 0.3 0.0291228 -3.34952 0 0 -0.0726862 
162 1 0.15 0.25 0.0435827 -3.35675 0 0 0.00978279 
164 1 0.133333 0.2 0.0291097 -3.35207 0 0 -0.0222532 
167 1 0.183333 0.25 0.0291498 -3.34639 0 0 -0.0577102 
340 1 0.2 0.3 0.0435836 -3.35582 0 0 0.0136672 
343 1 0.2 0.2 0.0435842 -3.36257 0 0 -0.0143297 
344 1 0.233333 0.2 0.0290143 -3.36314 0 0 -0.0151922 
346 1 0.25 0.25 0.0435863 -3.3596 0 0 -0.00898035 
379 1 0.233333 0.3 0.0291112 -3.35355 0 0 -0.0302285 
381 1 0.283333 0.25 0.0291116 -3.35325 0 0 -0.0299654 
582 1 0.3 0.2 0.0435838 -3.35544 0 0 0.0152424 
617 1 0.3 0.3 0.0435883 -3.36035 0 0 -0.0116947 
618 1 0.333333 0.3 0.0290464 -3.35987 0 0 -0.000354764 
619 1 0.35 0.25 0.0435861 -3.36052 0 0 -0.00787763 
621 1 0.333333 0.2 0.0291529 -3.3485 0 0 -0.0710699 
624 1 0.383333 0.25 0.0290429 -3.36195 0 0 -0.00908895 
923 1 0.4 0.3 0.0435879 -3.36111 0 0 -0.0105785 
926 1 0.4 0.2 0.0435882 -3.35981 0 0 -0.0123274 
927 1 0.433333 0.2 0.0290641 -3.35979 0 0 0.000948567 
929 1 0.45 0.25 0.0435887 -3.36044 0 0 -0.00824363 
962 1 0.433333 0.3 0.0291274 -3.35402 0 0 -0.0316163 
964 1 0.483333 0.25 0.0290523 -3.36112 0 0 -0.00824158 
1289 1 0.5 0.2 0.0435881 -3.36436 0 0 -0.0192618 
1324 1 0.5 0.3 0.0435884 -3.36013 0 0 -0.0106749 
1325 1 0.533333 0.3 0.0290563 -3.35921 0 0 0.00432318 
1328 1 0.533333 0.2 0.029046 -3.35999 0 0 -0.000946416 
1326 1 0.55 0.25 0.043588 -3.36104 0 0 -0.0140867 
1331 1 0.583333 0.25 0.0291033 -3.35125 0 0 -0.0225287 
1740 1 0.6 0.3 0.0435829 -3.36147 0 0 -0.01034 
1743 1 0.6 0.2 0.0435834 -3.35558 0 0 0.0118477 
1744 1 0.633333 0.2 0.0291401 -3.34795 0 0 -0.0676834 
1779 1 0.633333 0.3 0.0290432 -3.35899 0 0 -0.0584179 
1746 1 0.65 0.25 0.0435814 -3.35975 0 0 -0.00462093 
1781 1 0.683333 0.25 0.0290694 -3.35811 0 0 -0.0533773 
2226 1 0.7 0.2 0.0435858 -3.36044 0 0 -0.0092179 
2261 1 0.7 0.3 0.0435847 -3.35723 0 0 0.00691804 
2262 1 0.733333 0.3 0.0291222 -3.35315 0 0 -0.0280516 
2263 1 0.75 0.25 0.0435887 -3.36064 0 0 -0.00779676 
2265 1 0.733333 0.2 0.0290484 -3.362 0 0 -0.00973751 
2268 1 0.783333 0.25 0.0290766 -3.35925 0 0 0.00456808 
2804 1 0.8 0.3 0.0435906 -3.36098 0 0 -0.0112114 
2807 1 0.8 0.2 0.0435907 -3.36152 0 0 -0.0104696 
2808 1 0.833333 0.2 0.0290767 -3.35955 0 0 0.00429905 
2810 1 0.85 0.25 0.0435906 -3.36034 0 0 -0.01149 
2843 1 0.833333 0.3 0.0290765 -3.35983 0 0 0.00409416 
2845 1 0.883333 0.25 0.0290748 -3.35906 0 0 0.00460293 
3413 1 0.9 0.2 0.043589 -3.36413 0 0 -0.00544346 
3448 1 0.9 0.3 0.0435906 -3.35146 0 0 0.0037525 
3449 1 0.933333 0.3 0.0290888 -3.33444 0 0 -0.0107361 
3450 1 0.95 0.25 0.0435899 -3.32731 0 0 -0.0126546 
3452 1 0.933333 0.2 0.0290336 -3.35042 0 0 -0.0101318 
3455 1 0.983333 0.25 0.0293007 -3.3315 0 0 0.0570782 
46 1 0 0.5 0.0435905 -3.36337 0 0 -0.0119991 
49 1 8.95302e-18 0.4 0.0435861 -3.32315 0 0 -0.00788808 
50 1 0.0333333 0.4 0.029188 -3.32153 0 0 -0.0701649 
51 1 0.05 0.35 0.043583 -3.3195 0 0 0.0130821 
52 1 0.05 0.45 0.0435857 -3.3466 0 0 0.0276836 
56 1 0.0833333 0.35 0.0291011 -3.33846 0 0 -0.0741723 
70 1 0.0333333 0.5 0.0291215 -3.35335 0 0 -0.0275329 
72 1 0.0833333 0.45 0.0291514 -3.34786 0 0 -0.0659181 
157 1 0.1 0.4 0.0435817 -3.35848 0 0 0.016887 
163 1 0.15 0.35 0.0435816 -3.35493 0 0 0.0163473 
188 1 0.1 0.5 0.0435861 -3.36075 0 0 -0.00768458 
189 1 0.133333 0.5 0.0290421 -3.36105 0 0 -0.00188222 
190 1 0.15 0.45 0.0435863 -3.35949 0 0 -0.00904816 
192 1 0.133333 0.4 0.0291561 -3.34477 0 0 -0.0513462 
194 1 0.183333 0.35 0.0291473 -3.34806 0 0 -0.0676437 
195 1 0.183333 0.45 0.0290421 -3.36084 0 0 -0.00176928 
372 1 0.2 0.5 0.0435889 -3.3635 0 0 -0.0173935 
375 1 0.2 0.4 0.0435859 -3.36057 0 0 -0.00915051 
376 1 0.233333 0.4 0.0290425 -3.36196 0 0 -0.00918597 
377 1 0.25 0.35 0.0435882 -3.35989 0 0 -0.0121708 
378 1 0.25 0.45 0.0435879 -3.36118 0 0 -0.0103726 
404 1 0.233333 0.5 0.0290525 -3.3614 0 0 -0.00777343 
382 1 0.283333 0.35 0.0290636 -3.35981 0 0 0.00100947 
406 1 0.283333 0.45 0.0291271 -3.35412 0 0 -0.0320526 
614 1 0.3 0.4 0.0435887 -3.36041 0 0 -0.00840097 
620 1 0.35 0.35 0.0435881 -3.36438 0 0 -0.0191764 
647 1 0.3 0.5 0.0435873 -3.35645 0 0 0.00523063 
648 1 0.333333 0.5 0.0291141 -3.35287 0 0 -0.0283173 
649 1 0.35 0.45 0.0435883 -3.36065 0 0 -0.0113021 
651 1 0.333333 0.4 0.0290522 -3.36106 0 0 -0.00837434 
653 1 0.383333 0.35 0.0290512 -3.36033 0 0 -0.00423709 
654 1 0.383333 0.45 0.0290568 -3.35914 0 0 0.00438446 
955 1 0.4 0.5 0.0435855 -3.35974 0 0 -0.0119068 
958 1 0.4 0.4 0.0435884 -3.36008 0 0 -0.0109731 
959 1 0.433333 0.4 0.0291201 -3.3535 0 0 -0.0286656 
960 1 0.45 0.35 0.0435875 -3.35644 0 0 0.00665905 
961 1 0.45 0.45 0.043585 -3.36136 0 0 -0.0114745 
990 1 0.433333 0.5 0.0290901 -3.35462 0 0 -0.0341141 
965 1 0.483333 0.35 0.0291201 -3.35342 0 0 -0.0286073 
992 1 0.483333 0.45 0.0289979 -3.3658 0 0 -0.0294181 
1321 1 0.5 0.4 0.043585 -3.36136 0 0 -0.0114768 
1354 1 0.5 0.5 0.0435841 -3.3633 0 0 -0.0148045 
1355 1 0.533333 0.5 0.0290897 -3.35371 0 0 -0.0349221 
1358 1 0.533333 0.4 0.0290901 -3.35441 0 0 -0.0341369 
1327 1 0.55 0.35 0.0435855 -3.35983 0 0 -0.01172 
1356 1 0.55 0.45 0.0435835 -3.35609 0 0 0.0124161 
1360 1 0.583333 0.35 0.0290656 -3.35719 0 0 -0.0491575 
1361 1 0.583333 0.45 0.029221 -3.33852 0 0 -0.0835018 
1772 1 0.6 0.5 0.0435837 -3.35491 0 0 0.0144309 
1775 1 0.6 0.4 0.0435817 -3.35526 0 0 0.0168346 
1776 1 0.633333 0.4 0.02914 -3.34717 0 0 -0.0655545 
1807 1 0.633333 0.5 0.029093 -3.35564 0 0 -0.0398858 
1777 1 0.65 0.35 0.0435819 -3.35796 0 0 0.00690417 
1778 1 0.65 0.45 0.0435847 -3.3583 0 0 -0.00338802 
1782 1 0.683333 0.35 0.0291676 -3.34481 0 0 -0.051241 
1809 1 0.683333 0.45 0.0290384 -3.36253 0 0 -0.0115813 
2258 1 0.7 0.4 0.0435866 -3.35922 0 0 -0.00627465 
2292 1 0.7 0.5 0.0435896 -3.36243 0 0 -0.0153276 
2264 1 0.75 0.35 0.0435887 -3.35958 0 0 -0.00796366 
2293 1 0.733333 0.5 0.0290796 -3.35836 0 0 0.0125344 
2294 1 0.75 0.45 0.0435899 -3.36209 0 0 -0.0130134 
2296 1 0.733333 0.4 0.0290498 -3.36293 0 0 -0.0130026 
2298 1 0.783333 0.35 0.0290754 -3.35864 0 0 0.0082875 
2299 1 0.783333 0.45 0.0290799 -3.35776 0 0 0.0126767 
2836 1 0.8 0.5 0.0435903 -3.36167 0 0 -0.0135676 
2839 1 0.8 0.4 0.0435899 -3.36225 0 0 -0.0126056 
2840 1 0.833333 0.4 0.0290553 -3.36279 0 0 -0.0148395 
2841 1 0.85 0.35 0.043589 -3.35973 0 0 -0.00531169 
2842 1 0.85 0.45 0.0435886 -3.35986 0 0 -0.00881774 
2846 1 0.883333 0.35 0.029133 -3.35461 0 0 -0.0331691 
2870 1 0.833333 0.5 0.0290632 -3.35854 0 0 0.00662953 
2872 1 0.883333 0.45 0.0291221 -3.3542 0 0 -0.0315583 
3445 1 0.9 0.4 0.0435876 -3.35949 0 0 0.00810356 
3474 1 0.9 0.5 0.043586 -3.36057 0 0 -0.00695271 
3451 1 0.95 0.35 0.0435879 -3.32383 0 0 -0.0107921 