ITEM: TIMESTEP
0
ITEM: NUMBER OF ATOMS
13868
ITEM: BOX BOUNDS pp pp ss
0.0000000000000000e+00 4.9602167291359400e+01
0.0000000000000000e+00 2.8637824638055200e+01
-2.0000000000000000e-02 1.6136053272504097e+02
ITEM: ATOMS id type xs ys zs c_peratom fx fy fz 
1 1 0 0.1 0.000123931 -2.97464 0 0 0.00488462 
2 1 0.0166667 0.05 0.0146131 -3.30691 0 0 0.0054962 
3 1 0.0166667 0.15 0.0146131 -3.33479 0 0 0.0158913 
4 1 0 0 0.000123931 -2.90459 0 0 0.0580376 
5 1 0.05 0.05 0.000123931 -2.87786 0 0 0.0625539 
10 1 0.05 0.15 0.000123931 -3.00436 0 0 0.00339463 
40 1 0.0666667 0.1 0.0146131 -3.31418 0 0 0.0580077 
43 1 0.0666667 0 0.0146131 -3.24866 0 0 -0.067722 
44 1 0.1 0 0.000123931 -2.50696 0 0 0.223026 
45 1 0.116667 0.05 0.0146131 -3.24866 0 0 -0.0760295 
59 1 0.116667 0.15 0.0146131 -3.27879 0 0 -0.013392 
61 1 0.1 0.1 0.000123931 -2.86504 0 0 0.065583 
62 1 0.15 0.15 0.000123931 -2.7791 0 0 0.111845 
145 1 0.166667 0 0.0146131 -3.19188 0 0 -0.151776 
168 1 0.166667 0.1 0.0146131 -3.27884 0 0 -0.0718819 
169 1 0.2 0.1 0.000123931 -2.8673 0 0 0.0710712 
170 1 0.216667 0.05 0.0146131 -3.27576 0 0 0.0733415 
171 1 0.216667 0.15 0.0146131 -3.28312 0 0 0.136666 
172 1 0.2 0 0.000123931 -2.65251 0 0 0.167728 
173 1 0.25 0.05 0.000123931 -2.8673 0 0 0.0681424 
200 1 0.25 0.15 0.000123931 -2.76585 0 0 0.117182 
348 1 0.266667 0.1 0.0146131 -3.25966 0 0 -0.0939213 
351 1 0.266667 0 0.0146131 -3.28616 0 0 0.0447252 
352 1 0.3 0 0.000123931 -2.7791 0 0 0.11155 
353 1 0.316667 0.05 0.0146131 -3.22932 0 0 -0.0977172 
384 1 0.316667 0.15 0.0146131 -3.17527 0 0 -0.289525 
386 1 0.35 0.05 0.000123931 -2.63612 0 0 0.169387 
590 1 0.366667 0 0.0146131 -3.26789 0 0 -0.0505825 
625 1 0.366667 0.1 0.0146131 -3.23765 0 0 -0.0381125 
626 1 0.4 0.1 0.000123931 -2.76483 0 0 0.114689 
627 1 0.416667 0.05 0.0146131 -3.27884 0 0 -0.0776448 
628 1 0.416667 0.15 0.0146131 -3.27879 0 0 -0.0144166 
629 1 0.4 0 0.000123931 -2.77808 0 0 0.111961 
660 1 0.45 0.15 0.000123931 -2.89066 0 0 0.0582035 
931 1 0.466667 0.1 0.0146131 -3.30069 0 0 -0.13078 
934 1 0.466667 0 0.0146131 -3.28978 0 0 -0.102834 
935 1 0.5 0 0.000123931 -2.79234 0 0 0.108438 
936 1 0.516667 0.05 0.0146131 -3.26835 0 0 0.0112188 
968 1 0.516667 0.15 0.0146131 -3.30384 0 0 0.0861879 
970 1 0.5 0.1 0.000123931 -2.87786 0 0 0.062675 
971 1 0.55 0.05 0.000123931 -2.75157 0 0 0.116149 
972 1 0.55 0.15 0.000123931 -2.7791 0 0 0.112517 
1297 1 0.566667 0 0.0146131 -3.24037 0 0 -0.136634 
1332 1 0.566667 0.1 0.0146131 -3.24866 0 0 -0.0671091 
1333 1 0.616667 0.05 0.0146131 -3.23765 0 0 -0.0399757 
1334 1 0.616667 0.15 0.0146131 -3.17527 0 0 -0.292285 
1335 1 0.6 0 0.000123931 -2.637 0 0 0.167841 
1336 1 0.65 0.05 0.000123931 -2.76585 0 0 0.116905 
1748 1 0.666667 0.1 0.0146131 -3.25966 0 0 -0.0909201 
1751 1 0.666667 0 0.0146131 -3.29349 0 0 0.109421 
1752 1 0.7 0 0.000123931 -2.97844 0 0 0.0112963 
1753 1 0.716667 0.05 0.0146131 -3.32449 0 0 0.0379759 
1785 1 0.716667 0.15 0.0146131 -3.29654 0 0 0.026253 
1787 1 0.7 0.1 0.000123931 -2.8918 0 0 0.059169 
1788 1 0.75 0.05 0.000123931 -3.00054 0 0 -0.000280106 
1789 1 0.75 0.15 0.000123931 -2.97464 0 0 0.00621662 
2234 1 0.766667 0 0.0146131 -3.33479 0 0 0.0169631 
2269 1 0.766667 0.1 0.0146131 -3.33479 0 0 0.0146466 
2270 1 0.8 0.1 0.000123931 -2.98695 0 0 0.00289823 
2271 1 0.816667 0.05 0.0146131 -3.32449 0 0 0.0418707 
2272 1 0.816667 0.15 0.0146131 -3.32449 0 0 0.0415194 
2273 1 0.8 0 0.000123931 -3.00054 0 0 -0.00054424 
2274 1 0.85 0.05 0.000123931 -2.9023 0 0 0.0535474 
2305 1 0.85 0.15 0.000123931 -2.9023 0 0 0.0535543 
2812 1 0.866667 0.1 0.0146131 -3.30069 0 0 -0.124531 
2815 1 0.866667 0 0.0146131 -3.30691 0 0 0.00102061 
2816 1 0.9 0 0.000123931 -2.90345 0 0 0.054976 
2817 1 0.916667 0.05 0.0146131 -3.30069 0 0 -0.1237 
2849 1 0.916667 0.15 0.0146131 -3.30069 0 0 -0.12346 
2851 1 0.95 0.05 0.000123931 -2.90345 0 0 0.0556695 
2852 1 0.95 0.15 0.000123931 -2.9023 0 0 0.0544793 
3421 1 0.966667 0 0.0146131 -3.316 0 0 0.0915236 
3456 1 0.966667 0.1 0.0146131 -3.30691 0 0 0.00356435 
6 1 0 0.3 0.000123931 -2.8918 0 0 0.0618934 
7 1 0.0166667 0.25 0.0146131 -3.29654 0 0 -0.0368425 
9 1 0 0.2 0.000123931 -2.98823 0 0 0.00455336 
11 1 0.05 0.25 0.000123931 -2.87899 0 0 0.0652898 
54 1 0.0666667 0.3 0.0146131 -3.23927 0 0 -0.0118395 
57 1 0.0666667 0.2 0.0146131 -3.31418 0 0 0.0629663 
58 1 0.1 0.2 0.000123931 -2.86617 0 0 0.0668454 
60 1 0.116667 0.25 0.0146131 -3.23765 0 0 -0.0385132 
77 1 0.1 0.3 0.000123931 -2.49196 0 0 0.22817 
165 1 0.166667 0.2 0.0146131 -3.24866 0 0 -0.0639565 
196 1 0.166667 0.3 0.0146131 -3.16323 0 0 -0.254589 
197 1 0.216667 0.25 0.0146131 -3.24866 0 0 -0.0655644 
199 1 0.2 0.2 0.000123931 -2.75157 0 0 0.120494 
201 1 0.25 0.25 0.000123931 -2.76585 0 0 0.114384 
380 1 0.266667 0.3 0.0146131 -3.27879 0 0 -0.0148585 
383 1 0.266667 0.2 0.0146131 -3.24866 0 0 -0.0652417 
385 1 0.316667 0.25 0.0146131 -3.25966 0 0 -0.0904355 
412 1 0.3 0.3 0.000123931 -2.87899 0 0 0.0621624 
413 1 0.35 0.25 0.000123931 -2.77808 0 0 0.111299 
622 1 0.366667 0.2 0.0146131 -3.25966 0 0 -0.0925363 
655 1 0.366667 0.3 0.0146131 -3.30384 0 0 0.0886101 
656 1 0.4 0.3 0.000123931 -2.89066 0 0 0.05959 
657 1 0.416667 0.25 0.0146131 -3.29654 0 0 0.0219906 
659 1 0.4 0.2 0.000123931 -2.86504 0 0 0.063987 
661 1 0.45 0.25 0.000123931 -2.90459 0 0 0.05614 
963 1 0.466667 0.3 0.0146131 -3.30069 0 0 -0.128398 
966 1 0.466667 0.2 0.0146131 -3.31418 0 0 0.0615536 
967 1 0.5 0.2 0.000123931 -2.96357 0 0 0.0136419 
969 1 0.516667 0.25 0.0146131 -3.31418 0 0 0.0568563 
998 1 0.5 0.3 0.000123931 -2.8918 0 0 0.0593877 
999 1 0.55 0.25 0.000123931 -2.88126 0 0 0.0646029 
1329 1 0.566667 0.2 0.0146131 -3.25966 0 0 -0.0934384 
1362 1 0.566667 0.3 0.0146131 -3.2579 0 0 0.0378483 
1363 1 0.6 0.3 0.000123931 -2.62413 0 0 0.174357 
1364 1 0.616667 0.25 0.0146131 -3.20718 0 0 -0.0452894 
1366 1 0.65 0.25 0.000123931 -2.49196 0 0 0.227994 
1780 1 0.666667 0.3 0.0146131 -3.21255 0 0 -0.141732 
1783 1 0.666667 0.2 0.0146131 -3.21826 0 0 -0.0716912 
1784 1 0.7 0.2 0.000123931 -2.76483 0 0 0.114495 
1786 1 0.716667 0.25 0.0146131 -3.27884 0 0 -0.0684738 
1815 1 0.75 0.25 0.000123931 -2.90459 0 0 0.0559395 
2266 1 0.766667 0.2 0.0146131 -3.32449 0 0 0.03896 
2300 1 0.766667 0.3 0.0146131 -3.30691 0 0 0.00241944 
2301 1 0.8 0.3 0.000123931 -2.98823 0 0 0.0025947 
2302 1 0.816667 0.25 0.0146131 -3.33479 0 0 0.0107622 
2304 1 0.8 0.2 0.000123931 -3.00181 0 0 0.000631658 
2306 1 0.85 0.25 0.000123931 -2.97464 0 0 0.00452283 
2844 1 0.866667 0.3 0.0146131 -3.30691 0 0 0.00116522 
2847 1 0.866667 0.2 0.0146131 -3.30691 0 0 0.00102094 
2848 1 0.9 0.2 0.000123931 -2.90345 0 0 0.0548633 
2877 1 0.9 0.3 0.000123931 -2.90345 0 0 0.0550225 
2850 1 0.916667 0.25 0.0146131 -3.31418 0 0 0.07076 
2878 1 0.95 0.25 0.000123931 -2.97591 0 0 0.0105198 
3453 1 0.966667 0.2 0.0146131 -3.32632 0 0 0.0649478 
3482 1 0.966667 0.3 0.0146131 -3.30384 0 0 0.0244551 
8 1 0.0166667 0.35 0.0146131 -3.24866 0 0 -0.128236 
12 1 0 0.5 0.000123931 -2.89294 0 0 0.0604083 
13 1 0.0166667 0.45 0.0146131 -3.25966 0 0 -0.0845738 
15 1 0 0.4 0.000123931 -2.76382 0 0 0.114899 
71 1 0.0666667 0.5 0.0146131 -3.25966 0 0 -0.0903852 
74 1 0.0666667 0.4 0.0146131 -3.16323 0 0 -0.24846 
75 1 0.116667 0.35 0.0146131 -3.15947 0 0 -0.141889 
76 1 0.116667 0.45 0.0146131 -3.22932 0 0 -0.0863554 
91 1 0.1 0.5 0.000123931 -2.76483 0 0 0.114248 
92 1 0.15 0.45 0.000123931 -2.76585 0 0 0.114093 
193 1 0.166667 0.4 0.0146131 -3.22932 0 0 -0.0864743 
219 1 0.166667 0.5 0.0146131 -3.31418 0 0 0.060224 
198 1 0.216667 0.35 0.0146131 -3.25966 0 0 -0.092818 
220 1 0.2 0.5 0.000123931 -2.97718 0 0 0.0102045 
221 1 0.216667 0.45 0.0146131 -3.30384 0 0 0.0869809 
223 1 0.2 0.4 0.000123931 -2.76483 0 0 0.114188 
224 1 0.25 0.35 0.000123931 -2.86504 0 0 0.0639877 
225 1 0.25 0.45 0.000123931 -2.89066 0 0 0.0595504 
405 1 0.266667 0.5 0.0146131 -3.30069 0 0 -0.13043 
408 1 0.266667 0.4 0.0146131 -3.29654 0 0 0.0218561 
409 1 0.3 0.4 0.000123931 -2.90459 0 0 0.0561979 
410 1 0.316667 0.35 0.0146131 -3.31418 0 0 0.0595029 
411 1 0.316667 0.45 0.0146131 -3.30069 0 0 -0.130694 
414 1 0.35 0.35 0.000123931 -2.96357 0 0 0.0136118 
432 1 0.35 0.45 0.000123931 -2.89294 0 0 0.060456 
652 1 0.366667 0.4 0.0146131 -3.31418 0 0 0.0589788 
658 1 0.416667 0.35 0.0146131 -3.30069 0 0 -0.128686 
679 1 0.366667 0.5 0.0146131 -3.2579 0 0 0.0388484 
680 1 0.4 0.5 0.000123931 -2.73728 0 0 0.118896 
681 1 0.416667 0.45 0.0146131 -3.26835 0 0 0.0123627 
683 1 0.4 0.4 0.000123931 -2.8918 0 0 0.0594362 
684 1 0.45 0.45 0.000123931 -2.76483 0 0 0.116347 
991 1 0.466667 0.5 0.0146131 -3.25692 0 0 -0.00751326 
994 1 0.466667 0.4 0.0146131 -3.27884 0 0 -0.0760808 
995 1 0.5 0.4 0.000123931 -2.76483 0 0 0.116347 
996 1 0.516667 0.35 0.0146131 -3.26835 0 0 0.0122833 
997 1 0.516667 0.45 0.0146131 -3.25692 0 0 -0.00751326 
1018 1 0.5 0.5 0.000123931 -2.75258 0 0 0.121612 
1000 1 0.55 0.35 0.000123931 -2.73728 0 0 0.118874 
1359 1 0.566667 0.4 0.0146131 -3.20346 0 0 -0.179991 
1365 1 0.616667 0.35 0.0146131 -3.20101 0 0 -0.0990046 
1384 1 0.566667 0.5 0.0146131 -3.21502 0 0 -0.212405 
1385 1 0.616667 0.45 0.0146131 -3.18272 0 0 -0.205026 
1387 1 0.65 0.45 0.000123931 -2.63612 0 0 0.165837 
1808 1 0.666667 0.5 0.0146131 -3.28616 0 0 0.051202 
1811 1 0.666667 0.4 0.0146131 -3.22932 0 0 -0.095681 
1812 1 0.7 0.4 0.000123931 -2.77808 0 0 0.110056 
1813 1 0.716667 0.35 0.0146131 -3.27064 0 0 -0.124554 
1814 1 0.716667 0.45 0.0146131 -3.31418 0 0 0.061361 
1834 1 0.7 0.5 0.000123931 -2.97718 0 0 0.00849539 
1816 1 0.75 0.35 0.000123931 -2.88952 0 0 0.0567516 
1835 1 0.75 0.45 0.000123931 -2.98823 0 0 0.00422651 
2297 1 0.766667 0.4 0.0146131 -3.32449 0 0 0.0388522 
2303 1 0.816667 0.35 0.0146131 -3.32449 0 0 0.0391382 
2324 1 0.766667 0.5 0.0146131 -3.33479 0 0 0.0118804 
2325 1 0.8 0.5 0.000123931 -2.99077 0 0 0.00511687 
2326 1 0.816667 0.45 0.0146131 -3.32449 0 0 0.0362376 
2328 1 0.8 0.4 0.000123931 -2.98823 0 0 0.00412549 
2329 1 0.85 0.35 0.000123931 -2.9023 0 0 0.0536151 
2330 1 0.85 0.45 0.000123931 -2.89066 0 0 0.0579536 
2871 1 0.866667 0.5 0.0146131 -3.26835 0 0 0.0155315 
2874 1 0.866667 0.4 0.0146131 -3.30069 0 0 -0.127113 
2896 1 0.9 0.5 0.000123931 -2.77808 0 0 0.111743 
2875 1 0.916667 0.35 0.0146131 -3.30069 0 0 -0.120202 
2876 1 0.916667 0.45 0.0146131 -3.28978 0 0 -0.0999174 
2879 1 0.95 0.35 0.000123931 -2.89066 0 0 0.0613381 
2897 1 0.95 0.45 0.000123931 -2.87786 0 0 0.0649686 
3479 1 0.966667 0.4 0.0146131 -3.28796 0 0 0.076953 
3500 1 0.966667 0.5 0.0146131 -3.30384 0 0 0.0871964 
14 1 0.0166667 0.55 0.0146131 -3.30691 0 0 -0.00553971 
17 1 0.0166667 0.65 0.0146131 -3.29654 0 0 0.0277167 
19 1 0 0.6 0.000123931 -2.96483 0 0 0.0105457 
20 1 0.05 0.55 0.000123931 -2.87899 0 0 0.0620821 
21 1 0.05 0.65 0.000123931 -2.79132 0 0 0.106834 
87 1 0.0666667 0.6 0.0146131 -3.28616 0 0 0.0511857 
88 1 0.1 0.6 0.000123931 -2.87786 0 0 0.0639418 
89 1 0.116667 0.55 0.0146131 -3.30384 0 0 0.0865957 
90 1 0.116667 0.65 0.0146131 -3.28978 0 0 -0.0965001 
93 1 0.15 0.55 0.000123931 -2.97718 0 0 0.0102905 
103 1 0.15 0.65 0.000123931 -2.8918 0 0 0.0593827 
216 1 0.166667 0.6 0.0146131 -3.32449 0 0 0.0369913 
222 1 0.216667 0.55 0.0146131 -3.32449 0 0 0.0371338 
237 1 0.216667 0.65 0.0146131 -3.31418 0 0 0.0591111 
239 1 0.2 0.6 0.000123931 -3.00436 0 0 0.0034539 
240 1 0.25 0.55 0.000123931 -2.89066 0 0 0.0582094 
241 1 0.25 0.65 0.000123931 -2.86504 0 0 0.0670514 
428 1 0.266667 0.6 0.0146131 -3.26835 0 0 0.0143116 
429 1 0.3 0.6 0.000123931 -2.63612 0 0 0.167644 
430 1 0.316667 0.55 0.0146131 -3.24866 0 0 -0.0819611 
431 1 0.316667 0.65 0.0146131 -3.19188 0 0 -0.150246 
433 1 0.35 0.55 0.000123931 -2.63788 0 0 0.171223 
676 1 0.366667 0.6 0.0146131 -3.18944 0 0 -0.0616702 
682 1 0.416667 0.55 0.0146131 -3.20346 0 0 -0.18008 
696 1 0.416667 0.65 0.0146131 -3.1711 0 0 -0.178697 
1014 1 0.466667 0.6 0.0146131 -3.21502 0 0 -0.212594 
1015 1 0.5 0.6 0.000123931 -2.76483 0 0 0.112566 
1016 1 0.516667 0.55 0.0146131 -3.2579 0 0 0.0415877 
1017 1 0.516667 0.65 0.0146131 -3.29654 0 0 0.0243616 
1019 1 0.55 0.55 0.000123931 -2.76483 0 0 0.11256 
1030 1 0.55 0.65 0.000123931 -2.97718 0 0 0.00708637 
1381 1 0.566667 0.6 0.0146131 -3.29654 0 0 0.0243665 
1386 1 0.616667 0.55 0.0146131 -3.27884 0 0 -0.0588931 
1399 1 0.616667 0.65 0.0146131 -3.32449 0 0 0.0358807 
1401 1 0.6 0.6 0.000123931 -2.89066 0 0 0.0592504 
1402 1 0.65 0.55 0.000123931 -2.8918 0 0 0.060349 
1403 1 0.65 0.65 0.000123931 -2.97591 0 0 0.00758458 
1830 1 0.666667 0.6 0.0146131 -3.32449 0 0 0.0378051 
1831 1 0.7 0.6 0.000123931 -3.00309 0 0 0.00218708 
1832 1 0.716667 0.55 0.0146131 -3.33479 0 0 0.011509 
1833 1 0.716667 0.65 0.0146131 -3.31418 0 0 0.0642664 
1836 1 0.75 0.55 0.000123931 -2.98823 0 0 0.00292427 
1846 1 0.75 0.65 0.000123931 -2.87672 0 0 0.0627898 
2321 1 0.766667 0.6 0.0146131 -3.29654 0 0 0.028755 
2327 1 0.816667 0.55 0.0146131 -3.28616 0 0 0.053429 
2341 1 0.816667 0.65 0.0146131 -3.22409 0 0 -0.158141 
2343 1 0.8 0.6 0.000123931 -2.77808 0 0 0.110893 
2344 1 0.85 0.55 0.000123931 -2.75056 0 0 0.115608 
2893 1 0.866667 0.6 0.0146131 -3.20346 0 0 -0.1773 
2894 1 0.916667 0.55 0.0146131 -3.26789 0 0 -0.0321681 
2895 1 0.916667 0.65 0.0146131 -3.20346 0 0 -0.174107 
2898 1 0.95 0.55 0.000123931 -2.87899 0 0 0.0651069 
2907 1 0.95 0.65 0.000123931 -2.76483 0 0 0.11476 
3497 1 0.966667 0.6 0.0146131 -3.29654 0 0 0.0243501 
16 1 0 0.7 0.000123931 -2.87899 0 0 0.0654213 
18 1 0.0166667 0.75 0.0146131 -3.27884 0 0 -0.133821 
25 1 0 0.8 0.000123931 -2.88013 0 0 0.0678989 
84 1 0.0666667 0.7 0.0146131 -3.2471 0 0 -0.224384 
99 1 0.0666667 0.8 0.0146131 -3.21987 0 0 -0.0511437 
100 1 0.1 0.8 0.000123931 -2.47841 0 0 0.233196 
101 1 0.116667 0.75 0.0146131 -3.21826 0 0 -0.080573 
104 1 0.15 0.75 0.000123931 -2.62326 0 0 0.17183 
232 1 0.166667 0.8 0.0146131 -3.18029 0 0 -0.115504 
235 1 0.166667 0.7 0.0146131 -3.26835 0 0 0.0136651 
236 1 0.2 0.7 0.000123931 -2.86504 0 0 0.0671592 
238 1 0.216667 0.75 0.0146131 -3.26789 0 0 -0.0350522 
246 1 0.25 0.75 0.000123931 -2.76585 0 0 0.117249 
425 1 0.266667 0.7 0.0146131 -3.26789 0 0 -0.0350133 
439 1 0.266667 0.8 0.0146131 -3.2579 0 0 0.0394841 
440 1 0.3 0.8 0.000123931 -2.75157 0 0 0.115575 
441 1 0.316667 0.75 0.0146131 -3.21502 0 0 -0.21489 
691 1 0.366667 0.8 0.0146131 -3.26789 0 0 -0.0368228 
694 1 0.366667 0.7 0.0146131 -3.1711 0 0 -0.179044 
695 1 0.4 0.7 0.000123931 -2.49196 0 0 0.224467 
697 1 0.416667 0.75 0.0146131 -3.2579 0 0 0.0395449 
703 1 0.4 0.8 0.000123931 -2.86617 0 0 0.0679968 
704 1 0.45 0.75 0.000123931 -2.87899 0 0 0.0635136 
1011 1 0.466667 0.7 0.0146131 -3.27884 0 0 -0.0616295 
1025 1 0.466667 0.8 0.0146131 -3.32449 0 0 0.0348967 
1026 1 0.5 0.8 0.000123931 -2.97591 0 0 0.00762192 
1027 1 0.516667 0.75 0.0146131 -3.32449 0 0 0.0358169 
1029 1 0.5 0.7 0.000123931 -2.89066 0 0 0.0592799 
1031 1 0.55 0.75 0.000123931 -2.99077 0 0 0.00521832 
1394 1 0.566667 0.8 0.0146131 -3.28616 0 0 0.0555713 
1397 1 0.566667 0.7 0.0146131 -3.33479 0 0 0.00709027 
1398 1 0.6 0.7 0.000123931 -2.99077 0 0 0.00521832 
1400 1 0.616667 0.75 0.0146131 -3.28616 0 0 0.0555713 
1408 1 0.6 0.8 0.000123931 -2.76382 0 0 0.114019 
1409 1 0.65 0.75 0.000123931 -2.77706 0 0 0.109894 
1827 1 0.666667 0.7 0.0146131 -3.29654 0 0 0.028222 
1842 1 0.666667 0.8 0.0146131 -3.2356 0 0 -0.1907 
1843 1 0.716667 0.75 0.0146131 -3.27884 0 0 -0.0661529 
1845 1 0.7 0.7 0.000123931 -2.87672 0 0 0.0627875 
1847 1 0.75 0.75 0.000123931 -2.79234 0 0 0.108511 
2337 1 0.766667 0.8 0.0146131 -3.27879 0 0 -0.0121295 
2340 1 0.766667 0.7 0.0146131 -3.27884 0 0 -0.0665602 
2342 1 0.816667 0.75 0.0146131 -3.24866 0 0 -0.0758311 
2350 1 0.8 0.8 0.000123931 -2.86504 0 0 0.0654306 
2351 1 0.85 0.75 0.000123931 -2.50622 0 0 0.221634 
2890 1 0.866667 0.7 0.0146131 -3.15022 0 0 -0.199875 
2904 1 0.866667 0.8 0.0146131 -3.24866 0 0 -0.0730803 
2905 1 0.916667 0.75 0.0146131 -3.22409 0 0 -0.151419 
2908 1 0.95 0.75 0.000123931 -2.76483 0 0 0.117963 
3507 1 0.966667 0.8 0.0146131 -3.27755 0 0 0.0364961 
3510 1 0.966667 0.7 0.0146131 -3.27755 0 0 0.105932 
22 1 0 0.9 0.000123931 -2.87786 0 0 0.0670589 
23 1 0.0166667 0.85 0.0146131 -3.24743 0 0 -0.0656416 
24 1 0.0166667 0.95 0.0146131 -3.27884 0 0 -0.127229 
26 1 0.05 0.85 0.000123931 -2.637 0 0 0.172263 
96 1 0.0666667 0.9 0.0146131 -3.21404 0 0 -0.105336 
102 1 0.116667 0.85 0.0146131 -3.15705 0 0 -0.0513638 
105 1 0.116667 0.95 0.0146131 -3.13854 0 0 -0.162012 
243 1 0.166667 0.9 0.0146131 -3.09496 0 0 -0.213687 
244 1 0.216667 0.85 0.0146131 -3.20346 0 0 -0.175933 
245 1 0.216667 0.95 0.0146131 -3.23765 0 0 -0.0298227 
247 1 0.25 0.85 0.000123931 -2.76686 0 0 0.114921 
248 1 0.25 0.95 0.000123931 -2.85333 0 0 0.0711119 
436 1 0.266667 0.9 0.0146131 -3.28616 0 0 0.0447785 
442 1 0.316667 0.85 0.0146131 -3.26835 0 0 0.0106273 
443 1 0.316667 0.95 0.0146131 -3.28978 0 0 -0.107747 
444 1 0.3 0.9 0.000123931 -2.88013 0 0 0.0634737 
445 1 0.35 0.85 0.000123931 -2.77808 0 0 0.111778 
699 1 0.366667 0.9 0.0146131 -3.28978 0 0 -0.103436 
700 1 0.4 0.9 0.000123931 -2.87672 0 0 0.0616812 
701 1 0.416667 0.85 0.0146131 -3.31418 0 0 0.0590869 
702 1 0.416667 0.95 0.0146131 -3.27879 0 0 -0.012278 
705 1 0.45 0.85 0.000123931 -3.00564 0 0 0.00459266 
706 1 0.45 0.95 0.000123931 -2.87672 0 0 0.0614928 
1022 1 0.466667 0.9 0.0146131 -3.31418 0 0 0.0618065 
1028 1 0.516667 0.85 0.0146131 -3.29654 0 0 0.0281807 
1032 1 0.516667 0.95 0.0146131 -3.27884 0 0 -0.0682974 
1033 1 0.5 0.9 0.000123931 -2.87672 0 0 0.0627681 
1034 1 0.55 0.85 0.000123931 -2.77706 0 0 0.109923 
1405 1 0.566667 0.9 0.0146131 -3.2356 0 0 -0.192975 
1406 1 0.616667 0.85 0.0146131 -3.22409 0 0 -0.156212 
1407 1 0.616667 0.95 0.0146131 -3.22932 0 0 -0.100083 
1410 1 0.65 0.95 0.000123931 -2.75157 0 0 0.117499 
1839 1 0.666667 0.9 0.0146131 -3.24037 0 0 -0.122968 
1844 1 0.716667 0.85 0.0146131 -3.27064 0 0 -0.126191 
1848 1 0.716667 0.95 0.0146131 -3.31418 0 0 0.0630246 
1849 1 0.7 0.9 0.000123931 -2.77706 0 0 0.108939 
1850 1 0.75 0.85 0.000123931 -2.87672 0 0 0.0597913 
1851 1 0.75 0.95 0.000123931 -2.98823 0 0 0.0041792 
2346 1 0.766667 0.9 0.0146131 -3.32449 0 0 0.0366354 
2347 1 0.8 0.9 0.000123931 -3.00309 0 0 0.00192821 
2348 1 0.816667 0.85 0.0146131 -3.31418 0 0 0.0577167 
2349 1 0.816667 0.95 0.0146131 -3.33479 0 0 0.0126812 
2352 1 0.85 0.85 0.000123931 -2.87786 0 0 0.0623639 
2353 1 0.85 0.95 0.000123931 -2.97464 0 0 0.00462474 
2901 1 0.866667 0.9 0.0146131 -3.30691 0 0 -4.37177e-05 
2910 1 0.9 0.9 0.000123931 -2.90459 0 0 0.0564772 
2906 1 0.916667 0.85 0.0146131 -3.28978 0 0 -0.0807514 
2909 1 0.916667 0.95 0.0146131 -3.31418 0 0 0.0715849 
2911 1 0.95 0.85 0.000123931 -2.8918 0 0 0.0641951 
2912 1 0.95 0.95 0.000123931 -2.9623 0 0 0.0148896 
3512 1 0.966667 0.9 0.0146131 -3.30566 0 0 0.0477676 
27 1 0 0.1 0.0435914 -3.3637 0 0 0.00211058 
30 1 0 0 0.0435914 -3.32998 0 0 0.00106218 
31 1 0.0333333 0 0.0291023 -3.3221 0 0 0.0479493 
32 1 0.05 0.05 0.0435914 -3.34978 0 0 0.000360369 
37 1 0.05 0.15 0.0435914 -3.34978 0 0 0.00247499 
39 1 0.0333333 0.1 0.0291023 -3.36 0 0 -0.0171385 
41 1 0.0833333 0.05 0.0291023 -3.3637 0 0 -0.070895 
42 1 0.0833333 0.15 0.0291023 -3.36 0 0 -0.0271645 
123 1 0.1 0 0.0435914 -3.36185 0 0 -0.00721842 
140 1 0.1 0.1 0.0435914 -3.36 0 0 -0.00248187 
141 1 0.133333 0.1 0.0291023 -3.34978 0 0 0.0101477 
142 1 0.15 0.05 0.0435914 -3.36 0 0 -0.00607525 
143 1 0.15 0.15 0.0435914 -3.36 0 0 -0.00436886 
144 1 0.133333 0 0.0291023 -3.34138 0 0 0.029701 
146 1 0.183333 0.05 0.0291023 -3.35163 0 0 -0.00758912 
166 1 0.183333 0.15 0.0291023 -3.3637 0 0 -0.07307 
311 1 0.2 0.1 0.0435914 -3.36 0 0 -0.00484832 
314 1 0.2 0 0.0435914 -3.36 0 0 -0.00659164 
315 1 0.233333 0 0.0291023 -3.36185 0 0 -0.0590524 
316 1 0.25 0.05 0.0435914 -3.36 0 0 -0.00367891 
345 1 0.25 0.15 0.0435914 -3.36 0 0 -0.00560154 
347 1 0.233333 0.1 0.0291023 -3.36185 0 0 -0.056322 
349 1 0.283333 0.05 0.0291023 -3.34978 0 0 0.0069997 
350 1 0.283333 0.15 0.0291023 -3.34138 0 0 0.0428791 
550 1 0.3 0 0.0435914 -3.36 0 0 -0.00430717 
585 1 0.3 0.1 0.0435914 -3.36 0 0 -0.00676156 
586 1 0.333333 0.1 0.0291023 -3.34138 0 0 0.0381563 
587 1 0.35 0.05 0.0435914 -3.36 0 0 -0.00704556 
588 1 0.35 0.15 0.0435914 -3.36 0 0 -0.00674793 
589 1 0.333333 0 0.0291023 -3.35163 0 0 -0.00706813 
591 1 0.383333 0.05 0.0291023 -3.36555 0 0 -0.0936242 
623 1 0.383333 0.15 0.0291023 -3.34978 0 0 0.0071903 
891 1 0.4 0.1 0.0435914 -3.36 0 0 -0.0049337 
894 1 0.4 0 0.0435914 -3.36 0 0 -0.00482485 
895 1 0.433333 0 0.0291023 -3.34978 0 0 0.0157244 
896 1 0.45 0.05 0.0435914 -3.36 0 0 -0.00350569 
928 1 0.45 0.15 0.0435914 -3.36 0 0 -0.00248775 
930 1 0.433333 0.1 0.0291023 -3.34978 0 0 0.016352 
932 1 0.483333 0.05 0.0291023 -3.34978 0 0 0.0165338 
933 1 0.483333 0.15 0.0291023 -3.36185 0 0 -0.044668 
1257 1 0.5 0 0.0435914 -3.36 0 0 -0.0040924 
1292 1 0.5 0.1 0.0435914 -3.36 0 0 -0.00324394 
1293 1 0.533333 0.1 0.0291023 -3.36185 0 0 -0.0570787 
1296 1 0.533333 0 0.0291023 -3.34978 0 0 0.0074773 
1294 1 0.55 0.05 0.0435914 -3.36 0 0 -0.00449781 
1295 1 0.55 0.15 0.0435914 -3.36 0 0 -0.00477996 
1298 1 0.583333 0.05 0.0291023 -3.35163 0 0 -0.0151201 
1330 1 0.583333 0.15 0.0291023 -3.34138 0 0 0.0427186 
1708 1 0.6 0.1 0.0435914 -3.36 0 0 -0.00741267 
1711 1 0.6 0 0.0435914 -3.36 0 0 -0.00601645 
1712 1 0.633333 0 0.0291023 -3.3637 0 0 -0.0797849 
1747 1 0.633333 0.1 0.0291023 -3.34138 0 0 0.0417839 
1713 1 0.65 0.05 0.0435914 -3.36 0 0 -0.00553129 
1745 1 0.65 0.15 0.0435914 -3.36 0 0 -0.00686857 
1749 1 0.683333 0.05 0.0291023 -3.36185 0 0 -0.0486474 
1750 1 0.683333 0.15 0.0291023 -3.34978 0 0 0.00746975 
2194 1 0.7 0 0.0435914 -3.36 0 0 -0.00230954 
2229 1 0.7 0.1 0.0435914 -3.36 0 0 -0.00258877 
2230 1 0.733333 0.1 0.0291023 -3.36 0 0 -0.0235633 
2231 1 0.75 0.05 0.0435914 -3.36 0 0 -0.000593262 
2232 1 0.75 0.15 0.0435914 -3.36 0 0 -0.00139331 
2233 1 0.733333 0 0.0291023 -3.36 0 0 -0.0202575 
2235 1 0.783333 0.05 0.0291023 -3.36 0 0 -0.0177716 
2267 1 0.783333 0.15 0.0291023 -3.36 0 0 -0.0191339 
2772 1 0.8 0.1 0.0435914 -3.36 0 0 -0.00119678 
2775 1 0.8 0 0.0435914 -3.36 0 0 -0.000527149 
2776 1 0.833333 0 0.0291023 -3.36 0 0 -0.0221667 
2777 1 0.85 0.05 0.0435914 -3.36 0 0 -0.00213298 
2809 1 0.85 0.15 0.0435914 -3.36 0 0 -0.00213298 
2811 1 0.833333 0.1 0.0291023 -3.36185 0 0 -0.0403823 
2813 1 0.883333 0.05 0.0291023 -3.34978 0 0 0.0239491 
2814 1 0.883333 0.15 0.0291023 -3.34978 0 0 0.0239516 
3381 1 0.9 0 0.0435914 -3.36185 0 0 -0.00210089 
3416 1 0.9 0.1 0.0435914 -3.36 0 0 -0.0030661 
3417 1 0.933333 0.1 0.0291023 -3.34978 0 0 0.0253684 
3418 1 0.95 0.05 0.0435914 -3.34978 0 0 -0.00136321 
3419 1 0.95 0.15 0.0435914 -3.34978 0 0 -0.00195579 
3420 1 0.933333 0 0.0291023 -3.35163 0 0 -0.0602621 
3422 1 0.983333 0.05 0.0291023 -3.34978 0 0 -0.0449717 
3454 1 0.983333 0.15 0.0291023 -3.34978 0 0 -0.0402279 
35 1 0 0.2 0.0435914 -3.3283 0 0 0.0010292 
36 1 0.0333333 0.2 0.0291023 -3.33239 0 0 0.00719629 
38 1 0.05 0.25 0.0435914 -3.3283 0 0 -0.00311998 
53 1 0.0333333 0.3 0.0291023 -3.31745 0 0 0.209225 
55 1 0.0833333 0.25 0.0291023 -3.35347 0 0 -0.0935719 
137 1 0.1 0.2 0.0435914 -3.36185 0 0 -0.00340583 
160 1 0.1 0.3 0.0435914 -3.34978 0 0 -0.0101263 
161 1 0.133333 0.3 0.0291023 -3.34322 0 0 0.0179249 
162 1 0.15 0.25 0.0435914 -3.36 0 0 -0.00757902 
164 1 0.133333 0.2 0.0291023 -3.34978 0 0 0.00652027 
167 1 0.183333 0.25 0.0291023 -3.34138 0 0 0.0414624 
340 1 0.2 0.3 0.0435914 -3.36 0 0 -0.00676698 
343 1 0.2 0.2 0.0435914 -3.36 0 0 -0.00626465 
344 1 0.233333 0.2 0.0291023 -3.3637 0 0 -0.0765934 
346 1 0.25 0.25 0.0435914 -3.36 0 0 -0.00445863 
379 1 0.233333 0.3 0.0291023 -3.34978 0 0 0.00780994 
381 1 0.283333 0.25 0.0291023 -3.34978 0 0 0.0081218 
582 1 0.3 0.2 0.0435914 -3.36 0 0 -0.00663933 
617 1 0.3 0.3 0.0435914 -3.36 0 0 -0.00272642 
618 1 0.333333 0.3 0.0291023 -3.36185 0 0 -0.0486602 
619 1 0.35 0.25 0.0435914 -3.36 0 0 -0.00466706 
621 1 0.333333 0.2 0.0291023 -3.34138 0 0 0.0441559 
624 1 0.383333 0.25 0.0291023 -3.36185 0 0 -0.0517464 
923 1 0.4 0.3 0.0435914 -3.36 0 0 -0.00306996 
926 1 0.4 0.2 0.0435914 -3.36 0 0 -0.00278752 
927 1 0.433333 0.2 0.0291023 -3.36 0 0 -0.0332801 
929 1 0.45 0.25 0.0435914 -3.36 0 0 -0.00238351 
962 1 0.433333 0.3 0.0291023 -3.34978 0 0 0.0218793 
964 1 0.483333 0.25 0.0291023 -3.36185 0 0 -0.0435374 
1289 1 0.5 0.2 0.0435914 -3.36 0 0 -0.0028738 
1324 1 0.5 0.3 0.0435914 -3.36 0 0 -0.00260119 
1325 1 0.533333 0.3 0.0291023 -3.36 0 0 -0.0400154 
1328 1 0.533333 0.2 0.0291023 -3.36185 0 0 -0.0490184 
1326 1 0.55 0.25 0.0435914 -3.36 0 0 -0.00296984 
1331 1 0.583333 0.25 0.0291023 -3.34978 0 0 0.000868139 
1740 1 0.6 0.3 0.0435914 -3.36 0 0 -0.0074424 
1743 1 0.6 0.2 0.0435914 -3.36 0 0 -0.006962 
1744 1 0.633333 0.2 0.0291023 -3.34138 0 0 0.032929 
1779 1 0.633333 0.3 0.0291023 -3.35531 0 0 -0.0514101 
1746 1 0.65 0.25 0.0435914 -3.36 0 0 -0.0087482 
1781 1 0.683333 0.25 0.0291023 -3.35347 0 0 -0.0285794 
2226 1 0.7 0.2 0.0435914 -3.36 0 0 -0.00490936 
2261 1 0.7 0.3 0.0435914 -3.36 0 0 -0.00588328 
2262 1 0.733333 0.3 0.0291023 -3.34978 0 0 0.0173992 
2263 1 0.75 0.25 0.0435914 -3.36 0 0 -0.0023558 
2265 1 0.733333 0.2 0.0291023 -3.36185 0 0 -0.046901 
2268 1 0.783333 0.25 0.0291023 -3.36 0 0 -0.0223435 
2804 1 0.8 0.3 0.0435914 -3.36 0 0 -0.0006821 
2807 1 0.8 0.2 0.0435914 -3.36 0 0 -0.000619591 
2808 1 0.833333 0.2 0.0291023 -3.36 0 0 -0.0222733 
2810 1 0.85 0.25 0.0435914 -3.36 0 0 -0.000683605 
2843 1 0.833333 0.3 0.0291023 -3.36 0 0 -0.0224157 
2845 1 0.883333 0.25 0.0291023 -3.36 0 0 -0.0239309 
3413 1 0.9 0.2 0.0435914 -3.36185 0 0 -0.00213203 
3448 1 0.9 0.3 0.0435914 -3.34978 0 0 -0.000734831 
3449 1 0.933333 0.3 0.0291023 -3.33422 0 0 -0.0117573 
3450 1 0.95 0.25 0.0435914 -3.3283 0 0 -0.00128166 
3452 1 0.933333 0.2 0.0291023 -3.35163 0 0 -0.059832 
3455 1 0.983333 0.25 0.0291023 -3.3283 0 0 0.172839 
46 1 0 0.5 0.0435914 -3.36185 0 0 -0.000802684 
49 1 8.95302e-18 0.4 0.0435914 -3.3283 0 0 -0.00461278 
50 1 0.0333333 0.4 0.0291023 -3.31361 0 0 0.0747128 
51 1 0.05 0.35 0.0435914 -3.3283 0 0 -0.00734867 
52 1 0.05 0.45 0.0435914 -3.34978 0 0 -0.00493545 
56 1 0.0833333 0.35 0.0291023 -3.33295 0 0 -0.000972397 
70 1 0.0333333 0.5 0.0291023 -3.34978 0 0 0.0167764 
72 1 0.0833333 0.45 0.0291023 -3.34138 0 0 0.0427887 
157 1 0.1 0.4 0.0435914 -3.36185 0 0 -0.0084962 
163 1 0.15 0.35 0.0435914 -3.36 0 0 -0.00856087 
188 1 0.1 0.5 0.0435914 -3.36 0 0 -0.00466048 
189 1 0.133333 0.5 0.0291023 -3.36185 0 0 -0.0523941 
190 1 0.15 0.45 0.0435914 -3.36 0 0 -0.00442364 
192 1 0.133333 0.4 0.0291023 -3.33954 0 0 0.0468926 
194 1 0.183333 0.35 0.0291023 -3.34138 0 0 0.03926 
195 1 0.183333 0.45 0.0291023 -3.36185 0 0 -0.0523947 
372 1 0.2 0.5 0.0435914 -3.36 0 0 -0.00222135 
375 1 0.2 0.4 0.0435914 -3.36 0 0 -0.00481481 
376 1 0.233333 0.4 0.0291023 -3.36185 0 0 -0.0520114 
377 1 0.25 0.35 0.0435914 -3.36 0 0 -0.00276686 
378 1 0.25 0.45 0.0435914 -3.36 0 0 -0.00304791 
404 1 0.233333 0.5 0.0291023 -3.36185 0 0 -0.0433831 
382 1 0.283333 0.35 0.0291023 -3.36 0 0 -0.0336682 
406 1 0.283333 0.45 0.0291023 -3.34978 0 0 0.0216036 
614 1 0.3 0.4 0.0435914 -3.36 0 0 -0.00238351 
620 1 0.35 0.35 0.0435914 -3.36 0 0 -0.0028738 
647 1 0.3 0.5 0.0435914 -3.36 0 0 -0.00358763 
648 1 0.333333 0.5 0.0291023 -3.34978 0 0 0.0103453 
649 1 0.35 0.45 0.0435914 -3.36 0 0 -0.00268908 
651 1 0.333333 0.4 0.0291023 -3.36185 0 0 -0.043635 
653 1 0.383333 0.35 0.0291023 -3.36185 0 0 -0.0444842 
654 1 0.383333 0.45 0.0291023 -3.36 0 0 -0.0396086 
955 1 0.4 0.5 0.0435914 -3.36 0 0 -0.00516195 
958 1 0.4 0.4 0.0435914 -3.36 0 0 -0.00262322 
959 1 0.433333 0.4 0.0291023 -3.34978 0 0 0.0155542 
960 1 0.45 0.35 0.0435914 -3.36 0 0 -0.00343621 
961 1 0.45 0.45 0.0435914 -3.36 0 0 -0.00556222 
990 1 0.433333 0.5 0.0291023 -3.35163 0 0 -0.0105584 
965 1 0.483333 0.35 0.0291023 -3.34978 0 0 0.0155716 
992 1 0.483333 0.45 0.0291023 -3.36555 0 0 -0.0908754 
1321 1 0.5 0.4 0.0435914 -3.36 0 0 -0.00556222 
1354 1 0.5 0.5 0.0435914 -3.36 0 0 -0.00634892 
1355 1 0.533333 0.5 0.0291023 -3.35163 0 0 -0.0108987 
1358 1 0.533333 0.4 0.0291023 -3.35163 0 0 -0.0105466 
1327 1 0.55 0.35 0.0435914 -3.36 0 0 -0.00514249 
1356 1 0.55 0.45 0.0435914 -3.36 0 0 -0.00686112 
1360 1 0.583333 0.35 0.0291023 -3.35347 0 0 -0.0319332 
1361 1 0.583333 0.45 0.0291023 -3.32929 0 0 0.103471 
1772 1 0.6 0.5 0.0435914 -3.36 0 0 -0.00667755 
1775 1 0.6 0.4 0.0435914 -3.36 0 0 -0.00842842 
1776 1 0.633333 0.4 0.0291023 -3.34138 0 0 0.0328781 
1807 1 0.633333 0.5 0.0291023 -3.35163 0 0 -0.00803629 
1777 1 0.65 0.35 0.0435914 -3.36 0 0 -0.00829688 
1778 1 0.65 0.45 0.0435914 -3.36 0 0 -0.00589283 
1782 1 0.683333 0.35 0.0291023 -3.33954 0 0 0.0568984 
1809 1 0.683333 0.45 0.0291023 -3.36185 0 0 -0.0556393 
2258 1 0.7 0.4 0.0435914 -3.36 0 0 -0.00415234 
2292 1 0.7 0.5 0.0435914 -3.36 0 0 -0.00156983 
2264 1 0.75 0.35 0.0435914 -3.36 0 0 -0.0023486 
2293 1 0.733333 0.5 0.0291023 -3.36 0 0 -0.019693 
2294 1 0.75 0.45 0.0435914 -3.36 0 0 -0.00130696 
2296 1 0.733333 0.4 0.0291023 -3.36185 0 0 -0.0457046 
2298 1 0.783333 0.35 0.0291023 -3.36 0 0 -0.02339 
2299 1 0.783333 0.45 0.0291023 -3.36 0 0 -0.0195 
2836 1 0.8 0.5 0.0435914 -3.36 0 0 -0.000932046 
2839 1 0.8 0.4 0.0435914 -3.36 0 0 -0.00128922 
2840 1 0.833333 0.4 0.0291023 -3.36185 0 0 -0.040929 
2841 1 0.85 0.35 0.0435914 -3.36 0 0 -0.00207202 
2842 1 0.85 0.45 0.0435914 -3.36 0 0 -0.00244452 
2846 1 0.883333 0.35 0.0291023 -3.34978 0 0 0.0267647 
2870 1 0.833333 0.5 0.0291023 -3.36 0 0 -0.034041 
2872 1 0.883333 0.45 0.0291023 -3.34978 0 0 0.0173011 
3445 1 0.9 0.4 0.0435914 -3.36185 0 0 -0.00329986 
3474 1 0.9 0.5 0.0435914 -3.36 0 0 -0.00468639 
3451 1 0.95 0.35 0.0435914 -3.3283 0 0 -0.00303591 
3475 1 0.933333 0.5 0.0291023 -3.3637 0 0 -0.0660733 
3476 1 0.95 0.45 0.0435914 -3.34978 0 0 -0.00457016 
3478 1 0.933333 0.4 0.0291023 -3.33954 0 0 0.00186126 
3480 1 0.983333 0.35 0.0291023 -3.32998 0 0 0.146663 
3481 1 0.983333 0.45 0.0291023 -3.35163 0 0 -0.0707536 