----- GAMESS execution script 'rungms' -----
This job is running on host node001
under operating system Linux at Thu Aug 15 21:35:44 CEST 2019
Available scratch disk space (Kbyte units) at beginning of the job is
Filesystem        1K-blocks         Used  Available Use% Mounted on
beegfs_nodev   390626119680 386086889984 4539229696  99% /data
GAMESS temporary binary files will be written to /data/scratch-no-backup/mdi0316/rungms/1244190/tmp
GAMESS supplementary output files will be written to /data/scratch-no-backup/mdi0316/rungms/1244190/tmp
Copying input file gms_SCAN_from_ISOLATED_c1mim_bf4_T_5_P_270_R_10.0_N311_B3LYP_OPT_DFT.inp to your run's scratch directory...
 
Assuming a single but multicore node.
 

 Distributed Data Interface kickoff program.
 Initiating 16 compute processes on 1 nodes to run the following command:
 /home/mdi0316/CODES/gamess_sockets/gamess.00.x gms_SCAN_from_ISOLATED_c1mim_bf4_T_5_P_270_R_10.0_N311_B3LYP_OPT_DFT 

          ******************************************************
          *         GAMESS VERSION = 14 FEB 2018 (R1)         *
          *             FROM IOWA STATE UNIVERSITY             *
          * M.W.SCHMIDT, K.K.BALDRIDGE, J.A.BOATZ, S.T.ELBERT, *
          *   M.S.GORDON, J.H.JENSEN, S.KOSEKI, N.MATSUNAGA,   *
          *          K.A.NGUYEN, S.J.SU, T.L.WINDUS,           *
          *       TOGETHER WITH M.DUPUIS, J.A.MONTGOMERY       *
          *         J.COMPUT.CHEM.  14, 1347-1363(1993)        *
          **************** 64 BIT LINUX VERSION ****************

  SINCE 1993, STUDENTS AND POSTDOCS WORKING AT IOWA STATE UNIVERSITY
  AND ALSO IN THEIR VARIOUS JOBS AFTER LEAVING ISU HAVE MADE IMPORTANT
  CONTRIBUTIONS TO THE CODE:
     IVANA ADAMOVIC, CHRISTINE AIKENS, YURI ALEXEEV, POOJA ARORA,
     ANDREY ASADCHEV, ROB BELL, PRADIPTA BANDYOPADHYAY, JONATHAN BENTZ,
     BRETT BODE, KURT BRORSEN, CALEB CARLIN, GALINA CHABAN, WEI CHEN,
     CHEOL HO CHOI, PAUL DAY, ALBERT DEFUSCO, NUWAN DESILVA, TIM DUDLEY,
     DMITRI FEDOROV, ALEX FINDLATER, GRAHAM FLETCHER, MARK FREITAG,
     KURT GLAESEMANN, ANASTASIA GUININA,
     DAN KEMP, GRANT MERRILL, NORIYUKI MINEZAWA, JONATHAN MULLIN,
     TAKESHI NAGATA, SEAN NEDD, HEATHER NETZLOFF, BOSILJKA NJEGIC, RYAN OLSON,
     MIKE PAK, BUU PHAM,
     SPENCER PRUITT, LUKE ROSKOP, JIM SHOEMAKER, LYUDMILA SLIPCHENKO,
     TONY SMITH, SAROM SOK LEANG, JIE SONG, TETSUYA TAKETSUGU, SIMON WEBB,
     PENG XU, SOOHAENG YOO, FEDERICO ZAHARIEV

  ADDITIONAL CODE HAS BEEN PROVIDED BY COLLABORATORS IN OTHER GROUPS:
     IOWA STATE UNIVERSITY:
          JOE IVANIC, AARON WEST, LAIMUTIS BYTAUTAS, KLAUS RUEDENBERG
     UNIVERSITY OF TOKYO: KIMIHIKO HIRAO, TAKAHITO NAKAJIMA,
          TAKAO TSUNEDA, MUNEAKI KAMIYA, SUSUMU YANAGISAWA,
          KIYOSHI YAGI, MAHITO CHIBA, SEIKEN TOKURA, NAOAKI KAWAKAMI
     UNIVERSITY OF AARHUS: FRANK JENSEN
     UNIVERSITY OF IOWA: VISVALDAS KAIRYS, HUI LI
     NATIONAL INST. OF STANDARDS AND TECHNOLOGY: WALT STEVENS, DAVID GARMER
     UNIVERSITY OF PISA: BENEDETTA MENNUCCI, JACOPO TOMASI
     UNIVERSITY OF MEMPHIS: HENRY KURTZ, PRAKASHAN KORAMBATH
     UNIVERSITY OF ALBERTA: TOBY ZENG, MARIUSZ KLOBUKOWSKI
     UNIVERSITY OF NEW ENGLAND: MARK SPACKMAN
     MIE UNIVERSITY: HIROAKI UMEDA
     NAT. INST. OF ADVANCED INDUSTRIAL SCIENCE AND TECHNOLOGY: KAZUO KITAURA
     MICHIGAN STATE UNIVERSITY:
          KAROL KOWALSKI, MARTA WLOCH, JEFFREY GOUR, JESSE LUTZ,
          WEI LI, PIOTR PIECUCH
     UNIVERSITY OF SILESIA: MONIKA MUSIAL, STANISLAW KUCHARSKI
     FACULTES UNIVERSITAIRES NOTRE-DAME DE LA PAIX:
          OLIVIER QUINET, BENOIT CHAMPAGNE
     UNIVERSITY OF CALIFORNIA - SANTA BARBARA: BERNARD KIRTMAN
     INSTITUTE FOR MOLECULAR SCIENCE:
          KAZUYA ISHIMURA, MICHIO KATOUDA, AND SHIGERU NAGASE
     UNIVERSITY OF NOTRE DAME: ANNA POMOGAEVA, DAN CHIPMAN
     KYUSHU UNIVERSITY:
          HARUYUKI NAKANO,
          FENG LONG GU, JACEK KORCHOWIEC, MARCIN MAKOWSKI, AND YURIKO AOKI,
          HIROTOSHI MORI AND EISAKU MIYOSHI
     PENNSYLVANIA STATE UNIVERSITY:
          TZVETELIN IORDANOV, CHET SWALINA, JONATHAN SKONE,
          SHARON HAMMES-SCHIFFER
     WASEDA UNIVERSITY:
          MASATO KOBAYASHI, TOMOKO AKAMA, TSUGUKI TOUMA,
          TAKESHI YOSHIKAWA, YASUHIRO IKABATA, JUNJI SEINO,
          YUYA NAKAJIMA, HIROMI NAKAI
     NANJING UNIVERSITY: SHUHUA LI
     UNIVERSITY OF NEBRASKA:
          PEIFENG SU, DEJUN SI, NANDUN THELLAMUREGE, YALI WANG, HUI LI
     UNIVERSITY OF ZURICH: ROBERTO PEVERATI, KIM BALDRIDGE
     N. COPERNICUS UNIVERSITY AND JACKSON STATE UNIVERSITY:
          MARIA BARYSZ
     UNIVERSITY OF COPENHAGEN: Jimmy Kromann, CASPER STEINMANN
     TOKYO INSTITUTE OF TECHNOLOGY: HIROYA NAKATA
     NAGOYA UNIVERSITY: YOSHIO NISHIMOTO, STEPHAN IRLE
     MOSCOW STATE UNIVERSITY: VLADIMIR MIRONOV


 PARALLEL VERSION RUNNING ON       16 PROCESSORS IN        1 NODES.

 EXECUTION OF GAMESS BEGUN Thu Aug 15 21:35:44 2019

            ECHO OF THE FIRST FEW INPUT CARDS -
 INPUT CARD> $CONTRL                                                                        
 INPUT CARD>  SCFTYP=RHF                                                                    
 INPUT CARD>  EXETYP=RUN                                                                    
 INPUT CARD>  RUNTYP=OPTIMIZE                                                               
 INPUT CARD>  MOLPLT=.T.                                                                    
 INPUT CARD>  NOSYM=1                                                                       
 INPUT CARD>  MAXIT=200                                                                     
 INPUT CARD>  ICHARG=0                                                                      
 INPUT CARD>  MULT=1                                                                        
 INPUT CARD>  AIMPAC=.F.                                                                    
 INPUT CARD>  QMTTOL=1e-08                                                                  
 INPUT CARD>  COORD=ZMT                                                                     
 INPUT CARD>  NZVAR=57                                                                      
 INPUT CARD>  DFTTYP=B3LYP                                                                  
 INPUT CARD> $END                                                                           
 INPUT CARD> $SYSTEM                                                                        
 INPUT CARD>  MWORDS=4                                                                      
 INPUT CARD>  MEMDDI=256                                                                    
 INPUT CARD> $END                                                                           
 INPUT CARD> $STATPT                                                                        
 INPUT CARD>  OPTTOL=0.0001                                                                 
 INPUT CARD>  NSTEP=200                                                                     
 INPUT CARD>  IFREEZ(1)=43,44,45                                                            
 INPUT CARD>  PROJCT=.F.                                                                    
 INPUT CARD>  METHOD=QA                                                                     
 INPUT CARD> $END                                                                           
 INPUT CARD> $SCF                                                                           
 INPUT CARD>  DIRSCF=.T.                                                                    
 INPUT CARD>  NCONV=5                                                                       
 INPUT CARD>  DIIS=.T.                                                                      
 INPUT CARD>  DAMP=.T.                                                                      
 INPUT CARD> $END                                                                           
 INPUT CARD> $BASIS                                                                         
 INPUT CARD>  GBASIS=N311                                                                   
 INPUT CARD>  DIFFSP=.T.                                                                    
 INPUT CARD>  DIFFS=.T.                                                                     
 INPUT CARD>  NDFUNC=1                                                                      
 INPUT CARD>  NPFUNC=1                                                                      
 INPUT CARD>  NGAUSS=6                                                                      
 INPUT CARD>  POLAR=POPN311                                                                 
 INPUT CARD> $END                                                                           
 INPUT CARD> $DFT                                                                           
 INPUT CARD>  IDCVER=4                                                                      
 INPUT CARD>  DC=.T.                                                                        
 INPUT CARD> $END                                                                           
 INPUT CARD> $DATA                                                                          
 INPUT CARD>converged.zmat.from.R=9.5                                                       
 INPUT CARD>C1                                                                              
 INPUT CARD> C                                                                              
 INPUT CARD> N  1    NN1                                                                    
    4000000 WORDS OF MEMORY AVAILABLE

     BASIS OPTIONS
     -------------
     GBASIS=N311         IGAUSS=       6      POLAR=POPN311 
     NDFUNC=       1     NFFUNC=       0     DIFFSP=       T
     NPFUNC=       1      DIFFS=       T     BASNAM=        


     RUN TITLE
     ---------
 converged.zmat.from.R=9.5                                                       

 THE POINT GROUP OF THE MOLECULE IS C1      
 THE ORDER OF THE PRINCIPAL AXIS IS     0

 YOUR FULLY SUBSTITUTED Z-MATRIX IS
 C   
 N      1   1.3388321
 N      1   1.3386085  2  108.4616
 C      2   1.3818210  1  108.7846  3    0.0766  0
 C      3   1.3835408  1  108.6484  2   -0.0546  0
 H      1   1.0768184  2  125.7180  3 -179.9426  0
 H      4   1.0781827  2  121.9019  1  179.6417  0
 H      5   1.0765010  3  122.1087  1 -179.8183  0
 C      3   1.4675048  1  125.7809  2 -179.7343  0
 H      9   1.0881355  3  108.8917  1    0.1673  0
 H      9   1.0895641  3  109.5010  1 -119.4688  0
 H      9   1.0895758  3  109.4286  1  119.7428  0
 C      2   1.4739650  1  126.5089  3  179.6871  0
 H     13   1.0879668  2  108.8755  1   -2.8705  0
 H     13   1.0892113  2  109.1544  1 -122.7524  0
 H     13   1.0893774  2  109.3554  1  117.2145  0
 B      1  10.0000000  2    5.0000  3  270.0000  0
 F     17   1.4368301  1    2.5503  2   37.4315  0
 F     17   1.4106092 18  108.7412  2   40.5264  0
 F     17   1.4105381 18  108.7544 19  119.9982  0
 F     17   1.4105784 18  108.7132 19 -119.9983  0

 THE MOMENTS OF INERTIA ARE (AMU-ANGSTROM**2)
 IXX=   222.433   IYY=  4436.525   IZZ=  4548.534

 ATOM      ATOMIC                      COORDINATES (BOHR)
           CHARGE         X                   Y                   Z
 C           6.0    -9.3253896263       -1.5970079202        0.1326209418
 N           7.0    -6.8162582985       -1.3721508511       -0.1013232625
 N           7.0   -10.3454020853        0.7172313194        0.0800469132
 C           6.0    -6.2144789281        1.1605458070       -0.3062719514
 C           6.0    -8.4257018427        2.4709452412       -0.1936622603
 H           1.0   -10.3480719770       -3.3449853983        0.3313162744
 H           1.0    -4.2890652139        1.7972927760       -0.5027885878
 H           1.0    -8.7915915634        4.4702694135       -0.2783449858
 C           6.0   -13.0476681251        1.3033387063        0.2916468928
 H           1.0   -14.0952077423       -0.4532070255        0.5049231883
 H           1.0   -13.6760051542        2.2736435447       -1.4121987091
 H           1.0   -13.3631295545        2.4937234567        1.9417826501
 C           6.0    -4.9612400373       -3.4498369450       -0.1242362587
 H           1.0    -5.9493845241       -5.2271083160        0.1788230005
 H           1.0    -3.5902746350       -3.1478031028        1.3810455036
 H           1.0    -3.9985349914       -3.4849250502       -1.9435503651
 B           5.0     9.4881693155        0.1766337262        0.0295378620
 F           9.0     6.7807090429       -0.0100405730       -0.0553447128
 F           9.0    10.5137831335       -2.2821710798        0.1198948652
 F           9.0    10.3288813543        1.4439128168       -2.1595852143
 F           9.0    10.1831725371        1.5446588128        2.2092022287

          INTERNUCLEAR DISTANCES (ANGS.)
          ------------------------------

                1 C          2 N          3 N          4 C          5 C     

   1 C       0.0000000    1.3388321 *  1.3386085 *  2.2120935 *  2.2114381 *
   2 N       1.3388321 *  0.0000000    2.1724172 *  1.3818210 *  2.2053567 *
   3 N       1.3386085 *  2.1724172 *  0.0000000    2.2080263 *  1.3835408 *
   4 C       2.2120935 *  1.3818210 *  2.2080263 *  0.0000000    1.3614708 *
   5 C       2.2114381 *  2.2053567 *  1.3835408 *  1.3614708 *  0.0000000  
   6 H       1.0768184 *  2.1529751 *  2.1537415 *  3.2531673    3.2533066  
   7 H       3.2314314    2.1555938 *  3.2700177    1.0781827 *  2.2238751 *
   8 H       3.2303958    3.2649487    2.1578539 *  2.2198061 *  1.0765010 *
   9 C       2.4985157 *  3.5946344    1.4675048 *  3.6305714    2.5357146 *
  10 H       2.6031032 *  3.8956611    2.0908521 *  4.2784274    3.3958993  
  11 H       3.1881015    4.1689744    2.0995825 *  4.0348311    2.8540980 *
  12 H       3.1887263    4.1661002    2.0986841 *  4.0278113    2.8467000 *
  13 C       2.5126032 *  1.4739650 *  3.6044465    2.5300746 *  3.6302862  
  14 H       2.6234158 *  2.0961464 *  3.9126888    3.3928358    4.2837518  
  15 H       3.2125493    2.1005956 *  4.1755685    2.8148727 *  4.0102906  
  16 H       3.1860733    2.1032503 *  4.1679482    2.8581200 *  4.0347572  
  17 B      10.0000000    8.6670481   10.4994067    8.3276766    9.5577742  
  18 F       8.5648316    7.2312604    9.0711992    6.9058776    8.1536127  
  19 F      10.5047000    9.1840447   11.1517575    9.0405511   10.3344743  
  20 F      10.5940145    9.2586735   11.0110840    8.8104093    9.9936639  
  21 F      10.5140776    9.2087022   10.9303007    8.7811241    9.9412389  

                6 H          7 H          8 H          9 C         10 H     

   1 C       1.0768184 *  3.2314314    3.2303958    2.4985157 *  2.6031032 *
   2 N       2.1529751 *  2.1555938 *  3.2649487    3.5946344    3.8956611  
   3 N       2.1537415 *  3.2700177    2.1578539 *  1.4675048 *  2.0908521 *
   4 C       3.2531673    1.0781827 *  2.2198061 *  3.6305714    4.2784274  
   5 C       3.2533066    2.2238751 *  1.0765010 *  2.5357146 *  3.3958993  
   6 H       0.0000000    4.2284646    4.2291999    2.8446075 *  2.5063986 *
   7 H       4.2284646    0.0000000    2.7734100 *  4.6612149    5.3507295  
   8 H       4.2291999    2.7734100 *  0.0000000    2.8234732 *  3.8518315  
   9 C       2.8446075 *  4.6612149    2.8234732 *  0.0000000    1.0881355 *
  10 H       2.5063986 *  5.3507295    3.8518315    1.0881355 *  0.0000000  
  11 H       3.5767049    4.9969740    2.8968907 *  1.0895641 *  1.7778151 *
  12 H       3.5802545    4.9866242    2.8855769 *  1.0895758 *  1.7776656 *
  13 C       2.8613021 *  2.8065104 *  4.6562615    4.9685195    5.0978476  
  14 H       2.5331009 *  3.8365703    5.3529693    5.1044378    4.9992804  
  15 H       3.6204634    2.8245929 *  4.9596728    5.5611908    5.7576347  
  16 H       3.5699358    2.9014180 *  4.9931293    5.5452723    5.7270851  
  17 B      10.6622235    7.3462706    9.9378270   11.9411533   12.4867708  
  18 F       9.2366294    5.9401546    8.5756019   10.5173217   11.0535260  
  19 F      11.0545022    8.1320285   10.8248964   12.6120532   13.0600236  
  20 F      11.3084885    7.7872566   10.2923327   12.4383826   13.0400570  
  21 F      11.2126538    7.7928314   10.2445867   12.3357018   12.9225018  

               11 H         12 H         13 C         14 H         15 H     

   1 C       3.1881015    3.1887263    2.5126032 *  2.6234158 *  3.2125493  
   2 N       4.1689744    4.1661002    1.4739650 *  2.0961464 *  2.1005956 *
   3 N       2.0995825 *  2.0986841 *  3.6044465    3.9126888    4.1755685  
   4 C       4.0348311    4.0278113    2.5300746 *  3.3928358    2.8148727 *
   5 C       2.8540980 *  2.8467000 *  3.6302862    4.2837518    4.0102906  
   6 H       3.5767049    3.5802545    2.8613021 *  2.5331009 *  3.6204634  
   7 H       4.9969740    4.9866242    2.8065104 *  3.8365703    2.8245929 *
   8 H       2.8968907 *  2.8855769 *  4.6562615    5.3529693    4.9596728  
   9 C       1.0895641 *  1.0895758 *  4.9685195    5.1044378    5.5611908  
  10 H       1.7778151 *  1.7776656 *  5.0978476    4.9992804    5.7576347  
  11 H       0.0000000    1.7863567 *  5.5592383    5.7603391    6.2370281  
  12 H       1.7863567 *  0.0000000    5.5547505    5.7406070    5.9787649  
  13 C       5.5592383    5.5547505    0.0000000    1.0879668 *  1.0892113 *
  14 H       5.7603391    5.7406070    1.0879668 *  0.0000000    1.7815480 *
  15 H       6.2370281    5.9787649    1.0892113 *  1.7815480 *  0.0000000  
  16 H       5.9657988    6.2284788    1.0893774 *  1.7824309 *  1.7814707 *
  17 B      12.3317038   12.1964444    7.8838596    8.6555797    7.1766298  
  18 F      10.9161125   10.7935502    6.4748099    7.2812927    5.7839357  
  19 F      13.0509381   12.9214141    8.2133250    8.8502742    7.5073126  
  20 F      12.7165776   12.7358651    8.5635079    9.3912581    7.9792283  
  21 F      12.7761661   12.4710876    8.5285111    9.3207128    7.7124364  

               16 H         17 B         18 F         19 F         20 F     

   1 C       3.1860733   10.0000000    8.5648316   10.5047000   10.5940145  
   2 N       2.1032503 *  8.6670481    7.2312604    9.1840447    9.2586735  
   3 N       4.1679482   10.4994067    9.0711992   11.1517575   11.0110840  
   4 C       2.8581200 *  8.3276766    6.9058776    9.0405511    8.8104093  
   5 C       4.0347572    9.5577742    8.1536127   10.3344743    9.9936639  
   6 H       3.5699358   10.6622235    9.2366294   11.0545022   11.3084885  
   7 H       2.9014180 *  7.3462706    5.9401546    8.1320285    7.7872566  
   8 H       4.9931293    9.9378270    8.5756019   10.8248964   10.2923327  
   9 C       5.5452723   11.9411533   10.5173217   12.6120532   12.4383826  
  10 H       5.7270851   12.4867708   11.0535260   13.0600236   13.0400570  
  11 H       5.9657988   12.3317038   10.9161125   13.0509381   12.7165776  
  12 H       6.2284788   12.1964444   10.7935502   12.9214141   12.7358651  
  13 C       1.0893774 *  7.8838596    6.4748099    8.2133250    8.5635079  
  14 H       1.7824309 *  8.6555797    7.2812927    8.8502742    9.3912581  
  15 H       1.7814707 *  7.1766298    5.7839357    7.5073126    7.9792283  
  16 H       0.0000000    7.4685506    6.0759192    7.7828968    8.0186502  
  17 B       7.4685506    0.0000000    1.4368301 *  1.4106092 *  1.4105381 *
  18 F       6.0759192    1.4368301 *  0.0000000    2.3144551 *  2.3145886 *
  19 F       7.7828968    1.4106092 *  2.3144551 *  0.0000000    2.3135348 *
  20 F       8.0186502    1.4105381 *  2.3145886 *  2.3135348 *  0.0000000  
  21 F       8.2603009    1.4105784 *  2.3140251 *  2.3138505 *  2.3137627 *

               21 F     

   1 C      10.5140776  
   2 N       9.2087022  
   3 N      10.9303007  
   4 C       8.7811241  
   5 C       9.9412389  
   6 H      11.2126538  
   7 H       7.7928314  
   8 H      10.2445867  
   9 C      12.3357018  
  10 H      12.9225018  
  11 H      12.7761661  
  12 H      12.4710876  
  13 C       8.5285111  
  14 H       9.3207128  
  15 H       7.7124364  
  16 H       8.2603009  
  17 B       1.4105784 *
  18 F       2.3140251 *
  19 F       2.3138505 *
  20 F       2.3137627 *
  21 F       0.0000000  

  * ... LESS THAN  3.000


     ATOMIC BASIS SET
     ----------------
 THE CONTRACTED PRIMITIVE FUNCTIONS HAVE BEEN UNNORMALIZED
 THE CONTRACTED BASIS FUNCTIONS ARE NOW NORMALIZED TO UNITY

  SHELL TYPE  PRIMITIVE        EXPONENT          CONTRACTION COEFFICIENT(S)

 C         

      1   S       1          4563.2400000    0.001966650249
      1   S       2           682.0240000    0.015230601932
      1   S       3           154.9730000    0.076126909656
      1   S       4            44.4553000    0.260801033080
      1   S       5            13.0290000    0.616462078191
      1   S       6             1.8277300    0.221006028032

      2   L       7            20.9642000    0.114660080729    0.040248692673
      2   L       8             4.8033100    0.919999647749    0.237593956746
      2   L       9             1.4593300   -0.003030682134    0.815853851473

      3   L      10             0.4834560    1.000000000000    1.000000000000

      4   L      11             0.1455850    1.000000000000    1.000000000000

      5   L      12             0.0438000    1.000000000000    1.000000000000

      6   D      13             0.6260000    1.000000000000

 N         

      7   S      14          6293.4800000    0.001969788147
      7   S      15           949.0440000    0.014961285923
      7   S      16           218.7760000    0.073500530843
      7   S      17            63.6916000    0.248936765774
      7   S      18            18.8282000    0.602459433142
      7   S      19             2.7202300    0.256201758938

      8   L      20            30.6331000    0.111906079519    0.038311918640
      8   L      21             7.0261400    0.921666654920    0.237403115502
      8   L      22             2.1120500   -0.002569191826    0.817592397779

      9   L      23             0.6840090    1.000000000000    1.000000000000

     10   L      24             0.2008780    1.000000000000    1.000000000000

     11   L      25             0.0639000    1.000000000000    1.000000000000

     12   D      26             0.9130000    1.000000000000

 N         

     13   S      27          6293.4800000    0.001969788147
     13   S      28           949.0440000    0.014961285923
     13   S      29           218.7760000    0.073500530843
     13   S      30            63.6916000    0.248936765774
     13   S      31            18.8282000    0.602459433142
     13   S      32             2.7202300    0.256201758938

     14   L      33            30.6331000    0.111906079519    0.038311918640
     14   L      34             7.0261400    0.921666654920    0.237403115502
     14   L      35             2.1120500   -0.002569191826    0.817592397779

     15   L      36             0.6840090    1.000000000000    1.000000000000

     16   L      37             0.2008780    1.000000000000    1.000000000000

     17   L      38             0.0639000    1.000000000000    1.000000000000

     18   D      39             0.9130000    1.000000000000

 C         

     19   S      40          4563.2400000    0.001966650249
     19   S      41           682.0240000    0.015230601932
     19   S      42           154.9730000    0.076126909656
     19   S      43            44.4553000    0.260801033080
     19   S      44            13.0290000    0.616462078191
     19   S      45             1.8277300    0.221006028032

     20   L      46            20.9642000    0.114660080729    0.040248692673
     20   L      47             4.8033100    0.919999647749    0.237593956746
     20   L      48             1.4593300   -0.003030682134    0.815853851473

     21   L      49             0.4834560    1.000000000000    1.000000000000

     22   L      50             0.1455850    1.000000000000    1.000000000000

     23   L      51             0.0438000    1.000000000000    1.000000000000

     24   D      52             0.6260000    1.000000000000

 C         

     25   S      53          4563.2400000    0.001966650249
     25   S      54           682.0240000    0.015230601932
     25   S      55           154.9730000    0.076126909656
     25   S      56            44.4553000    0.260801033080
     25   S      57            13.0290000    0.616462078191
     25   S      58             1.8277300    0.221006028032

     26   L      59            20.9642000    0.114660080729    0.040248692673
     26   L      60             4.8033100    0.919999647749    0.237593956746
     26   L      61             1.4593300   -0.003030682134    0.815853851473

     27   L      62             0.4834560    1.000000000000    1.000000000000

     28   L      63             0.1455850    1.000000000000    1.000000000000

     29   L      64             0.0438000    1.000000000000    1.000000000000

     30   D      65             0.6260000    1.000000000000

 H         

     31   S      66            33.8650000    0.025493814541
     31   S      67             5.0947900    0.190373108582
     31   S      68             1.1587900    0.852161486043

     32   S      69             0.3258400    1.000000000000

     33   S      70             0.1027410    1.000000000000

     34   S      71             0.0360000    1.000000000000

     35   P      72             0.7500000    1.000000000000

 H         

     36   S      73            33.8650000    0.025493814541
     36   S      74             5.0947900    0.190373108582
     36   S      75             1.1587900    0.852161486043

     37   S      76             0.3258400    1.000000000000

     38   S      77             0.1027410    1.000000000000

     39   S      78             0.0360000    1.000000000000

     40   P      79             0.7500000    1.000000000000

 H         

     41   S      80            33.8650000    0.025493814541
     41   S      81             5.0947900    0.190373108582
     41   S      82             1.1587900    0.852161486043

     42   S      83             0.3258400    1.000000000000

     43   S      84             0.1027410    1.000000000000

     44   S      85             0.0360000    1.000000000000

     45   P      86             0.7500000    1.000000000000

 C         

     46   S      87          4563.2400000    0.001966650249
     46   S      88           682.0240000    0.015230601932
     46   S      89           154.9730000    0.076126909656
     46   S      90            44.4553000    0.260801033080
     46   S      91            13.0290000    0.616462078191
     46   S      92             1.8277300    0.221006028032

     47   L      93            20.9642000    0.114660080729    0.040248692673
     47   L      94             4.8033100    0.919999647749    0.237593956746
     47   L      95             1.4593300   -0.003030682134    0.815853851473

     48   L      96             0.4834560    1.000000000000    1.000000000000

     49   L      97             0.1455850    1.000000000000    1.000000000000

     50   L      98             0.0438000    1.000000000000    1.000000000000

     51   D      99             0.6260000    1.000000000000

 H         

     52   S     100            33.8650000    0.025493814541
     52   S     101             5.0947900    0.190373108582
     52   S     102             1.1587900    0.852161486043

     53   S     103             0.3258400    1.000000000000

     54   S     104             0.1027410    1.000000000000

     55   S     105             0.0360000    1.000000000000

     56   P     106             0.7500000    1.000000000000

 H         

     57   S     107            33.8650000    0.025493814541
     57   S     108             5.0947900    0.190373108582
     57   S     109             1.1587900    0.852161486043

     58   S     110             0.3258400    1.000000000000

     59   S     111             0.1027410    1.000000000000

     60   S     112             0.0360000    1.000000000000

     61   P     113             0.7500000    1.000000000000

 H         

     62   S     114            33.8650000    0.025493814541
     62   S     115             5.0947900    0.190373108582
     62   S     116             1.1587900    0.852161486043

     63   S     117             0.3258400    1.000000000000

     64   S     118             0.1027410    1.000000000000

     65   S     119             0.0360000    1.000000000000

     66   P     120             0.7500000    1.000000000000

 C         

     67   S     121          4563.2400000    0.001966650249
     67   S     122           682.0240000    0.015230601932
     67   S     123           154.9730000    0.076126909656
     67   S     124            44.4553000    0.260801033080
     67   S     125            13.0290000    0.616462078191
     67   S     126             1.8277300    0.221006028032

     68   L     127            20.9642000    0.114660080729    0.040248692673
     68   L     128             4.8033100    0.919999647749    0.237593956746
     68   L     129             1.4593300   -0.003030682134    0.815853851473

     69   L     130             0.4834560    1.000000000000    1.000000000000

     70   L     131             0.1455850    1.000000000000    1.000000000000

     71   L     132             0.0438000    1.000000000000    1.000000000000

     72   D     133             0.6260000    1.000000000000

 H         

     73   S     134            33.8650000    0.025493814541
     73   S     135             5.0947900    0.190373108582
     73   S     136             1.1587900    0.852161486043

     74   S     137             0.3258400    1.000000000000

     75   S     138             0.1027410    1.000000000000

     76   S     139             0.0360000    1.000000000000

     77   P     140             0.7500000    1.000000000000

 H         

     78   S     141            33.8650000    0.025493814541
     78   S     142             5.0947900    0.190373108582
     78   S     143             1.1587900    0.852161486043

     79   S     144             0.3258400    1.000000000000

     80   S     145             0.1027410    1.000000000000

     81   S     146             0.0360000    1.000000000000

     82   P     147             0.7500000    1.000000000000

 H         

     83   S     148            33.8650000    0.025493814541
     83   S     149             5.0947900    0.190373108582
     83   S     150             1.1587900    0.852161486043

     84   S     151             0.3258400    1.000000000000

     85   S     152             0.1027410    1.000000000000

     86   S     153             0.0360000    1.000000000000

     87   P     154             0.7500000    1.000000000000

 B         

     88   S     155          2858.8900000    0.002153749067
     88   S     156           428.1400000    0.016582292818
     88   S     157            97.5282000    0.082186964406
     88   S     158            27.9693000    0.276617880201
     88   S     159             8.2157700    0.629315727452
     88   S     160             1.1127800    0.173769924743

     89   L     161            13.2415000    0.117442942252    0.041809998866
     89   L     162             3.0016600    0.918001548610    0.236574993582
     89   L     163             0.9128560   -0.002651048696    0.816213977857

     90   L     164             0.3154540    1.000000000000    1.000000000000

     91   L     165             0.0988563    1.000000000000    1.000000000000

     92   L     166             0.0315000    1.000000000000    1.000000000000

     93   D     167             0.4010000    1.000000000000

 F         

     94   S     168         11427.1000000    0.001800930156
     94   S     169          1722.3500000    0.013741901192
     94   S     170           395.7460000    0.068133405910
     94   S     171           115.1390000    0.233325020240
     94   S     172            33.6026000    0.589086051102
     94   S     173             4.9190100    0.299505025981

     95   L     174            55.4441000    0.114536015543    0.035460887379
     95   L     175            12.6323000    0.920512124917    0.237450915490
     95   L     176             3.7175600   -0.003378040458    0.820457707996

     96   L     177             1.1654500    1.000000000000    1.000000000000

     97   L     178             0.3218920    1.000000000000    1.000000000000

     98   L     179             0.1076000    1.000000000000    1.000000000000

     99   D     180             1.7500000    1.000000000000

 F         

    100   S     181         11427.1000000    0.001800930156
    100   S     182          1722.3500000    0.013741901192
    100   S     183           395.7460000    0.068133405910
    100   S     184           115.1390000    0.233325020240
    100   S     185            33.6026000    0.589086051102
    100   S     186             4.9190100    0.299505025981

    101   L     187            55.4441000    0.114536015543    0.035460887379
    101   L     188            12.6323000    0.920512124917    0.237450915490
    101   L     189             3.7175600   -0.003378040458    0.820457707996

    102   L     190             1.1654500    1.000000000000    1.000000000000

    103   L     191             0.3218920    1.000000000000    1.000000000000

    104   L     192             0.1076000    1.000000000000    1.000000000000

    105   D     193             1.7500000    1.000000000000

 F         

    106   S     194         11427.1000000    0.001800930156
    106   S     195          1722.3500000    0.013741901192
    106   S     196           395.7460000    0.068133405910
    106   S     197           115.1390000    0.233325020240
    106   S     198            33.6026000    0.589086051102
    106   S     199             4.9190100    0.299505025981

    107   L     200            55.4441000    0.114536015543    0.035460887379
    107   L     201            12.6323000    0.920512124917    0.237450915490
    107   L     202             3.7175600   -0.003378040458    0.820457707996

    108   L     203             1.1654500    1.000000000000    1.000000000000

    109   L     204             0.3218920    1.000000000000    1.000000000000

    110   L     205             0.1076000    1.000000000000    1.000000000000

    111   D     206             1.7500000    1.000000000000

 F         

    112   S     207         11427.1000000    0.001800930156
    112   S     208          1722.3500000    0.013741901192
    112   S     209           395.7460000    0.068133405910
    112   S     210           115.1390000    0.233325020240
    112   S     211            33.6026000    0.589086051102
    112   S     212             4.9190100    0.299505025981

    113   L     213            55.4441000    0.114536015543    0.035460887379
    113   L     214            12.6323000    0.920512124917    0.237450915490
    113   L     215             3.7175600   -0.003378040458    0.820457707996

    114   L     216             1.1654500    1.000000000000    1.000000000000

    115   L     217             0.3218920    1.000000000000    1.000000000000

    116   L     218             0.1076000    1.000000000000    1.000000000000

    117   D     219             1.7500000    1.000000000000

 TOTAL NUMBER OF BASIS SET SHELLS             =  117
 NUMBER OF CARTESIAN GAUSSIAN BASIS FUNCTIONS =  339
 NUMBER OF ELECTRONS                          =   94
 CHARGE OF MOLECULE                           =    0
 SPIN MULTIPLICITY                            =    1
 NUMBER OF OCCUPIED ORBITALS (ALPHA)          =   47
 NUMBER OF OCCUPIED ORBITALS (BETA )          =   47
 TOTAL NUMBER OF ATOMS                        =   21
 THE NUCLEAR REPULSION ENERGY IS      607.9190493552

     LEBEDEV GRID-BASED DFT OPTIONS
     ------------------------------
     DFTTYP=B3LYP   
     NRAD  =      96     NLEB  =     302
     NRAD0 =      24     NLEB0 =     110
     SWOFF =    5.00E-03 (PURE SCF -> DFT)
     SWITCH=    3.00E-04 (COARSE -> TIGHT GRID)
     THRESH=    0.00E+00 GTHRE=    1.00E+00

 GRIMME'S EMPIRICAL DISPERSION CORRECTION= T
  ________________________________

           DFTD3 V1.2             
   S.GRIMME, UNIVERSITY MUENSTER  
   WED MAR 10 08:38:00 CET 2010   
  ________________________________

 PLEASE CITE DFT-D3 WORK DONE WITH THIS CODE AS:
 S. GRIMME, J. ANTONY, S. EHRLICH AND H. KRIEG,
 J. CHEM. PHYS, 132 (2010), 154104.
 IF USED WITH BJ-DAMPING CITE ALSO
 S. GRIMME, S. EHRLICH AND L. GOERIGK,
 J. COMPUT. CHEM. 32 (2011), 1456-1465

 DFT-D3 PARAMETERS WILL BE LOADED AND PRINTED
 BEFORE THE RESULTS

 IMPLEMENTATION OF DFT-D IN GAMESS BY:
 R.PEVERATI AND K.K.BALDRIDGE, 
 J.CHEM.THEORY COMPUT. 4,(2008), 2030-2048


     $CONTRL OPTIONS
     ---------------
 SCFTYP=RHF          RUNTYP=OPTIMIZE     EXETYP=RUN     
 MPLEVL=       0     CITYP =NONE         CCTYP =NONE         VBTYP =NONE    
 DFTTYP=B3LYP        TDDFT =NONE    
 MULT  =       1     ICHARG=       0     NZVAR =      57     COORD =ZMT     
 PP    =NONE         RELWFN=NONE         LOCAL =NONE         NUMGRD=       F
 ISPHER=      -1     NOSYM =       1     MAXIT =     200     UNITS =ANGS    
 PLTORB=       F     MOLPLT=       T     AIMPAC=       F     FRIEND=        
 NPRINT=       7     IREST =       0     GEOM  =INPUT   
 NORMF =       0     NORMP =       0     ITOL  =      20     ICUT  =       9
 INTTYP=BEST         GRDTYP=BEST         QMTTOL= 1.0E-08

     $SYSTEM OPTIONS
     ---------------
  REPLICATED MEMORY=     4000000 WORDS (ON EVERY NODE).
 DISTRIBUTED MEMDDI=         256 MILLION WORDS IN AGGREGATE,
 MEMDDI DISTRIBUTED OVER  16 PROCESSORS IS    16000000 WORDS/PROCESSOR.
 TOTAL MEMORY REQUESTED ON EACH PROCESSOR=    20000000 WORDS.
 TIMLIM=      525600.00 MINUTES, OR     365.0 DAYS.
 PARALL= T  BALTYP=  DLB     KDIAG=    0  COREFL= F
 MXSEQ2=     300 MXSEQ3=     150  mem10=         0

          ----------------
          PROPERTIES INPUT
          ----------------

     MOMENTS            FIELD           POTENTIAL          DENSITY
 IEMOM =       1   IEFLD =       0   IEPOT =       0   IEDEN =       0
 WHERE =COMASS     WHERE =NUCLEI     WHERE =NUCLEI     WHERE =NUCLEI  
 OUTPUT=BOTH       OUTPUT=BOTH       OUTPUT=BOTH       OUTPUT=BOTH    
 IEMINT=       0   IEFINT=       0                     IEDINT=       0
                                                       MORB  =       0
          EXTRAPOLATION IN EFFECT
          DAMPING IN EFFECT
          DIIS IN EFFECT
 ORBITAL PRINTING OPTION: NPREO=     1   339     2     1

     -------------------------------
     INTEGRAL TRANSFORMATION OPTIONS
     -------------------------------
     NWORD  =            0
     CUTOFF = 1.0E-09     MPTRAN =       0
     DIRTRF =       T     AOINTS =DUP     

          ----------------------
          INTEGRAL INPUT OPTIONS
          ----------------------
 NOPK  =       1 NORDER=       0 SCHWRZ=       T

   --- ENCODED Z MATRIX ---
 COORD  TYPE   I   J   K   L   M   N
    1      1    2   1
    2      1    3   1
    3      2    3   1   2
    4      1    4   2
    5      2    4   2   1
    6      3    4   2   1   3
    7      1    5   3
    8      2    5   3   1
    9      3    5   3   1   2
   10      1    6   1
   11      2    6   1   2
   12      3    6   1   2   3
   13      1    7   4
   14      2    7   4   2
   15      3    7   4   2   1
   16      1    8   5
   17      2    8   5   3
   18      3    8   5   3   1
   19      1    9   3
   20      2    9   3   1
   21      3    9   3   1   2
   22      1   10   9
   23      2   10   9   3
   24      3   10   9   3   1
   25      1   11   9
   26      2   11   9   3
   27      3   11   9   3   1
   28      1   12   9
   29      2   12   9   3
   30      3   12   9   3   1
   31      1   13   2
   32      2   13   2   1
   33      3   13   2   1   3
   34      1   14  13
   35      2   14  13   2
   36      3   14  13   2   1
   37      1   15  13
   38      2   15  13   2
   39      3   15  13   2   1
   40      1   16  13
   41      2   16  13   2
   42      3   16  13   2   1
   43      1   17   1
   44      2   17   1   2
   45      3   17   1   2   3
   46      1   18  17
   47      2   18  17   1
   48      3   18  17   1   2
   49      1   19  17
   50      2   19  17  18
   51      3   19  17  18   2
   52      1   20  17
   53      2   20  17  18
   54      3   20  17  18  19
   55      1   21  17
   56      2   21  17  18
   57      3   21  17  18  19

 THE DETERMINANT OF THE G MATRIX IS 10**(   -51)


                     --------------------
                     INTERNAL COORDINATES
                     --------------------

                 - - ATOMS - -         COORDINATE      COORDINATE
 NO.   TYPE    I  J  K  L  M  N        (BOHR,RAD)       (ANG,DEG)
 ----------------------------------------------------------------
   1 STRETCH   2  1                     2.5300258       1.3388321
   2 STRETCH   3  1                     2.5296033       1.3386085
   3 BEND      3  1  2                  1.8930126     108.4616308
   4 STRETCH   4  2                     2.6112631       1.3818210
   5 BEND      4  2  1                  1.8986490     108.7845747
   6 TORSION   4  2  1  3               0.0013374       0.0766277
   7 STRETCH   5  3                     2.6145130       1.3835408
   8 BEND      5  3  1                  1.8962717     108.6483645
   9 TORSION   5  3  1  2              -0.0009528      -0.0545890
  10 STRETCH   6  1                     2.0348917       1.0768184
  11 BEND      6  1  2                  2.1941925     125.7179704
  12 TORSION   6  1  2  3              -3.1405905    -179.9425785
  13 STRETCH   7  4                     2.0374699       1.0781827
  14 BEND      7  4  2                  2.1275895     121.9018983
  15 TORSION   7  4  2  1               3.1353397     179.6417322
  16 STRETCH   8  5                     2.0342919       1.0765010
  17 BEND      8  5  3                  2.1311984     122.1086741
  18 TORSION   8  5  3  1              -3.1384214    -179.8183013
  19 STRETCH   9  3                     2.7731820       1.4675048
  20 BEND      9  3  1                  2.1952913     125.7809259
  21 TORSION   9  3  1  2              -3.1369546    -179.7342597
  22 STRETCH  10  9                     2.0562779       1.0881355
  23 BEND     10  9  3                  1.9005187     108.8916977
  24 TORSION  10  9  3  1               0.0029203       0.1673224
  25 STRETCH  11  9                     2.0589776       1.0895641
  26 BEND     11  9  3                  1.9111527     109.5009863
  27 TORSION  11  9  3  1              -2.0851238    -119.4687949
  28 STRETCH  12  9                     2.0589997       1.0895758
  29 BEND     12  9  3                  1.9098895     109.4286090
  30 TORSION  12  9  3  1               2.0899061     119.7427971
  31 STRETCH  13  2                     2.7853900       1.4739650
  32 BEND     13  2  1                  2.2079972     126.5089179
  33 TORSION  13  2  1  3               3.1361323     179.6871471
  34 STRETCH  14 13                     2.0559591       1.0879668
  35 BEND     14 13  2                  1.9002355     108.8754770
  36 TORSION  14 13  2  1              -0.0500991      -2.8704658
  37 STRETCH  15 13                     2.0583109       1.0892113
  38 BEND     15 13  2                  1.9051029     109.1543548
  39 TORSION  15 13  2  1              -2.1424332    -122.7523799
  40 STRETCH  16 13                     2.0586248       1.0893774
  41 BEND     16 13  2                  1.9086114     109.3553786
  42 TORSION  16 13  2  1               2.0457785     117.2144743
  43 STRETCH  17  1                    18.8972599      10.0000000
  44 BEND     17  1  2                  0.0872665       5.0000000
  45 TORSION  17  1  2  3              -1.5707963     -90.0000000
  46 STRETCH  18 17                     2.7152152       1.4368301
  47 BEND     18 17  1                  0.0445110       2.5502908
  48 TORSION  18 17  1  2               0.6533030      37.4315018
  49 STRETCH  19 17                     2.6656649       1.4106092
  50 BEND     19 17 18                  1.8978925     108.7412301
  51 TORSION  19 17 18  2               0.7073186      40.5263686
  52 STRETCH  20 17                     2.6655305       1.4105381
  53 BEND     20 17 18                  1.8981229     108.7544303
  54 TORSION  20 17 18 19               2.0943642     119.9982293
  55 STRETCH  21 17                     2.6656067       1.4105784
  56 BEND     21 17 18                  1.8974041     108.7132472
  57 TORSION  21 17 18 19              -2.0943650    -119.9982755

     ------------------------------------------
     THE POINT GROUP IS C1 , NAXIS= 1, ORDER= 1
     ------------------------------------------

     DIMENSIONS OF THE SYMMETRY SUBSPACES ARE
 A   =  339

 ..... DONE SETTING UP THE RUN .....
 CPU     0: STEP CPU TIME=     0.04 TOTAL CPU TIME=          0.0 (      0.0 MIN)
 TOTAL WALL CLOCK TIME=          0.2 SECONDS, CPU UTILIZATION IS    20.00%


          -----------------------------
          STATIONARY POINT LOCATION RUN
          -----------------------------

 OBTAINING INITIAL HESSIAN, HESS=GUESS   
 DIAGONAL GUESS HESSIAN IN INTERNAL COORDS IS
     1  0.4647     2  0.4649     3  0.2597     4  0.4274     5  0.2564
     6  0.2500     7  0.4260     8  0.2563     9  0.2500    10  0.3554
    11  0.2295    12  0.2500    13  0.3544    14  0.2268    15  0.2500
    16  0.3556    17  0.2268    18  0.2500    19  0.3619    20  0.2503
    21  0.2500    22  0.3476    23  0.2211    24  0.2500    25  0.3467
    26  0.2211    27  0.2500    28  0.3467    29  0.2211    30  0.2500
    31  0.3573    32  0.2498    33  0.2500    34  0.3477    35  0.2208
    36  0.2500    37  0.3469    38  0.2207    39  0.2500    40  0.3468
    41  0.2207    42  0.2500    43  0.0000    44  0.0933    45  0.2500
    46  0.3767    47  0.0931    48  0.2500    49  0.3964    50  0.2451
    51  0.2500    52  0.3964    53  0.2451    54  0.2500    55  0.3964
    56  0.2451    57  0.2500

          PARAMETERS CONTROLLING GEOMETRY SEARCH ARE
          METHOD =QA                  UPHESS =BFGS    
          NNEG   =         0          NFRZ   =         3
          NSTEP  =       200          IFOLOW =         1
          HESS   =GUESS               RESTAR =         F
          IHREP  =         0          HSSEND =         F
          NPRT   =         0          NPUN   =         0
          OPTTOL = 1.000E-04          RMIN   = 1.500E-03
          RMAX   = 1.000E-01          RLIM   = 7.000E-02
          DXMAX  = 3.000E-01          PURIFY =         F
          MOVIE  =         F          TRUPD  =         T
          TRMAX  = 5.000E-01          TRMIN  = 5.000E-02
          ITBMAT =         5          STPT   =         F
          STSTEP = 1.000E-02          PROJCT=          F
          FROZEN COORD(S)=  43  44  45

 BEGINNING GEOMETRY SEARCH POINT NSERCH=   0 ...

 COORDINATES OF ALL ATOMS ARE (ANGS)
   ATOM   CHARGE       X              Y              Z
 ------------------------------------------------------------
 C           6.0  -4.9347840305  -0.8451002582   0.0701799852
 N           7.0  -3.6070088165  -0.7261110129  -0.0536179653
 N           7.0  -5.4745514178   0.3795424966   0.0423590053
 C           6.0  -3.2885608646   0.6141344378  -0.1620721487
 C           6.0  -4.4586897241   1.3075680058  -0.1024816622
 H           1.0  -5.4759642637  -1.7700901718   0.1753250347
 H           1.0  -2.2696757317   0.9510864473  -0.2660642819
 H           1.0  -4.6523102400   2.3655648716  -0.1472938339
 C           6.0  -6.9045291274   0.6896971915   0.1543329005
 H           1.0  -7.4588632605  -0.2398268471   0.2671938639
 H           1.0  -7.2370307881   1.2031604367  -0.7473034283
 H           1.0  -7.0714641389   1.3196217192   1.0275472014
 C           6.0  -2.6253753557  -1.8255752249  -0.0657430016
 H           1.0  -3.1482789371  -2.7660668002   0.0946290635
 H           1.0  -1.8998916554  -1.6657457871   0.7308178607
 H           1.0  -2.1159337477  -1.8441430519  -1.0284826360
 B           5.0   5.0209233387   0.0934705494   0.0156307646
 F           9.0   3.5881969592  -0.0053132428  -0.0292871629
 F           9.0   5.5636548377  -1.2076730143   0.0634456349
 F           9.0   5.4658090228   0.7640858126  -1.1428033632
 F           9.0   5.3887032317   0.8173983015   1.1690595584


                     --------------------
                     INTERNAL COORDINATES
                     --------------------

                 - - ATOMS - -         COORDINATE      COORDINATE
 NO.   TYPE    I  J  K  L  M  N        (BOHR,RAD)       (ANG,DEG)
 ----------------------------------------------------------------
   1 STRETCH   2  1                     2.5300258       1.3388321
   2 STRETCH   3  1                     2.5296033       1.3386085
   3 BEND      3  1  2                  1.8930126     108.4616308
   4 STRETCH   4  2                     2.6112631       1.3818210
   5 BEND      4  2  1                  1.8986490     108.7845747
   6 TORSION   4  2  1  3               0.0013374       0.0766277
   7 STRETCH   5  3                     2.6145130       1.3835408
   8 BEND      5  3  1                  1.8962717     108.6483645
   9 TORSION   5  3  1  2              -0.0009528      -0.0545890
  10 STRETCH   6  1                     2.0348917       1.0768184
  11 BEND      6  1  2                  2.1941925     125.7179704
  12 TORSION   6  1  2  3              -3.1405905    -179.9425785
  13 STRETCH   7  4                     2.0374699       1.0781827
  14 BEND      7  4  2                  2.1275895     121.9018983
  15 TORSION   7  4  2  1               3.1353397     179.6417322
  16 STRETCH   8  5                     2.0342919       1.0765010
  17 BEND      8  5  3                  2.1311984     122.1086741
  18 TORSION   8  5  3  1              -3.1384214    -179.8183013
  19 STRETCH   9  3                     2.7731820       1.4675048
  20 BEND      9  3  1                  2.1952913     125.7809259
  21 TORSION   9  3  1  2              -3.1369546    -179.7342597
  22 STRETCH  10  9                     2.0562779       1.0881355
  23 BEND     10  9  3                  1.9005187     108.8916977
  24 TORSION  10  9  3  1               0.0029203       0.1673224
  25 STRETCH  11  9                     2.0589776       1.0895641
  26 BEND     11  9  3                  1.9111527     109.5009863
  27 TORSION  11  9  3  1              -2.0851238    -119.4687949
  28 STRETCH  12  9                     2.0589997       1.0895758
  29 BEND     12  9  3                  1.9098895     109.4286090
  30 TORSION  12  9  3  1               2.0899061     119.7427971
  31 STRETCH  13  2                     2.7853900       1.4739650
  32 BEND     13  2  1                  2.2079972     126.5089179
  33 TORSION  13  2  1  3               3.1361323     179.6871471
  34 STRETCH  14 13                     2.0559591       1.0879668
  35 BEND     14 13  2                  1.9002355     108.8754770
  36 TORSION  14 13  2  1              -0.0500991      -2.8704658
  37 STRETCH  15 13                     2.0583109       1.0892113
  38 BEND     15 13  2                  1.9051029     109.1543548
  39 TORSION  15 13  2  1              -2.1424332    -122.7523799
  40 STRETCH  16 13                     2.0586248       1.0893774
  41 BEND     16 13  2                  1.9086114     109.3553786
  42 TORSION  16 13  2  1               2.0457785     117.2144743
  43 STRETCH  17  1                    18.8972599      10.0000000
  44 BEND     17  1  2                  0.0872665       5.0000000
  45 TORSION  17  1  2  3              -1.5707963     -90.0000000
  46 STRETCH  18 17                     2.7152152       1.4368301
  47 BEND     18 17  1                  0.0445110       2.5502908
  48 TORSION  18 17  1  2               0.6533030      37.4315018
  49 STRETCH  19 17                     2.6656649       1.4106092
  50 BEND     19 17 18                  1.8978925     108.7412301
  51 TORSION  19 17 18  2               0.7073186      40.5263686
  52 STRETCH  20 17                     2.6655305       1.4105381
  53 BEND     20 17 18                  1.8981229     108.7544303
  54 TORSION  20 17 18 19               2.0943642     119.9982293
  55 STRETCH  21 17                     2.6656067       1.4105784
  56 BEND     21 17 18                  1.8974041     108.7132472
  57 TORSION  21 17 18 19              -2.0943650    -119.9982755

          ********************
          1 ELECTRON INTEGRALS
          ********************
 ...... END OF ONE-ELECTRON INTEGRALS ......
 CPU     0: STEP CPU TIME=     0.01 TOTAL CPU TIME=          0.0 (      0.0 MIN)
 TOTAL WALL CLOCK TIME=          0.2 SECONDS, CPU UTILIZATION IS    21.74%

          -------------
          GUESS OPTIONS
          -------------
          GUESS =HUCKEL            NORB  =       0          NORDER=       0
          MIX   =       F          PRTMO =       F          PUNMO =       F
          TOLZ  = 1.0E-08          TOLE  = 1.0E-05
          SYMDEN=       F          PURIFY=       F

 INITIAL GUESS ORBITALS GENERATED BY HUCKEL   ROUTINE.
 HUCKEL GUESS REQUIRES    860988 WORDS.

 SYMMETRIES FOR INITIAL GUESS ORBITALS FOLLOW.   BOTH SET(S).
    47 ORBITALS ARE OCCUPIED (   12 CORE ORBITALS).
    13=A       14=A       15=A       16=A       17=A       18=A       19=A   
    20=A       21=A       22=A       23=A       24=A       25=A       26=A   
    27=A       28=A       29=A       30=A       31=A       32=A       33=A   
    34=A       35=A       36=A       37=A       38=A       39=A       40=A   
    41=A       42=A       43=A       44=A       45=A       46=A       47=A   
    48=A       49=A       50=A       51=A       52=A       53=A       54=A   
    55=A       56=A       57=A   
 ...... END OF INITIAL ORBITAL SELECTION ......
 CPU     0: STEP CPU TIME=     0.24 TOTAL CPU TIME=          0.3 (      0.0 MIN)
 TOTAL WALL CLOCK TIME=          1.0 SECONDS, CPU UTILIZATION IS    29.90%

                    ----------------------
                    AO INTEGRAL TECHNOLOGY
                    ----------------------
     S,P,L SHELL ROTATED AXIS INTEGRALS, REPROGRAMMED BY
        KAZUYA ISHIMURA (IMS) AND JOSE SIERRA (SYNSTAR).
     S,P,D,L SHELL ROTATED AXIS INTEGRALS PROGRAMMED BY
        KAZUYA ISHIMURA (INSTITUTE FOR MOLECULAR SCIENCE).
     S,P,D,F,G SHELL TO TOTAL QUARTET ANGULAR MOMENTUM SUM 5,
        ERIC PROGRAM BY GRAHAM FLETCHER (ELORET AND NASA ADVANCED
        SUPERCOMPUTING DIVISION, AMES RESEARCH CENTER).
     S,P,D,F,G,L SHELL GENERAL RYS QUADRATURE PROGRAMMED BY
        MICHEL DUPUIS (PACIFIC NORTHWEST NATIONAL LABORATORY).

          --------------------
          2 ELECTRON INTEGRALS
          --------------------

 DIRECT SCF METHOD SKIPS INTEGRAL STORAGE ON DISK.
 DIRECT TRANSFORMATION SKIPS AO INTEGRAL STORAGE ON DISK.
  ...... END OF TWO-ELECTRON INTEGRALS .....
 CPU     0: STEP CPU TIME=     0.01 TOTAL CPU TIME=          0.3 (      0.0 MIN)
 TOTAL WALL CLOCK TIME=          1.0 SECONDS, CPU UTILIZATION IS    30.61%

          --------------------------
             R-B3LYP SCF CALCULATION
          --------------------------

     NUCLEAR ENERGY =       607.9190493552
     MAXIT =  200     NPUNCH=    2
     EXTRAP=T  DAMP=T  SHIFT=F  RSTRCT=F  DIIS=T  DEM=F  SOSCF=F
         DENSITY MATRIX CONVERGENCE THRESHOLD=  2.00E-05
     COARSE -> FINE DFT GRID SWITCH THRESHOLD=  3.00E-04 (SWITCH IN $DFT)
                   HF -> DFT SWITCH THRESHOLD=  5.00E-03 (SWOFF IN $DFT)
     MEMORY REQUIRED FOR RHF ITERS=   1631173 WORDS.

 DIRECT SCF CALCULATION, SCHWRZ=T   FDIFF=T,  DIRTHR=  0.00E+00 NITDIR=10
 SCHWARZ INEQUALITY OVERHEAD:     40770 INTEGRALS, T=        0.00

 DFT CODE IS SWITCHING FROM THE FINE GRID NRAD= 96,  NLEB=  302
                      TO THE COARSE GRID NRAD0= 24, NLEB0=  110

     EXCHANGE FUNCTIONAL   =B88&HFX   
     CORRELATION FUNCTIONAL=LYP88&VWN5
     DFT THRESHOLD         =.657E-08
     GRID CHANGE THRESHOLD =.300E-03
 FOR AN EULER-MACLAURIN QUADRATURE USING  96 RADIAL POINTS:
 SMALLEST GAUSSIAN PRIMITIVE EXPONENT=        0.0315000000 OF TYPE -P-
 ON ATOM NUMBER  17 HAS RADIAL NORMALIZATION=  1.000000
  LARGEST GAUSSIAN PRIMITIVE EXPONENT=    11427.1000000000 OF TYPE -S-
 ON ATOM NUMBER  18 HAS RADIAL NORMALIZATION=  1.000000
 DFT IS SWITCHED OFF, PERFORMING PURE SCF UNTIL SWOFF THRESHOLD IS REACHED.

                                                                                                                   NONZERO     BLOCKS
 ITER EX DEM     TOTAL ENERGY        E CHANGE  DENSITY CHANGE    DIIS ERROR      VIR. SHIFT       DAMPING        INTEGRALS    SKIPPED
   1  0  0     -723.7954149808  -723.7954149808   1.319452755   2.416874560     0.000000000     1.000000000      490007761   14703035
          * * *   INITIATING DIIS PROCEDURE   * * *
   2  1  0     -726.0945214078    -2.2991064270   0.434204068   0.118706453     0.000000000     1.000000000      490240603   14792407
   3  2  0     -726.2201971813    -0.1256757735   0.072138097   0.059871647     0.000000000     1.000000000      486969013   15158082
   4  3  0     -726.2610705202    -0.0408733389   0.044251994   0.014429848     0.000000000     1.000000000      481313312   15532028
   5  4  0     -726.2632265070    -0.0021559867   0.004563528   0.002775204     0.000000000     1.000000000      473721362   15846644
 CONVERGED TO SWOFF, SO DFT CALCULATION IS NOW SWITCHED ON.
          * * *   INITIATING DIIS PROCEDURE   * * *
   6  5  0     -729.6330593929    -3.3698328859   0.254981675   0.207295696      489979485   14811047
   7  6  0     -729.7155761707    -0.0825167777   0.048379090   0.023865639      486036787   15240276
   8  7  0     -729.7154230877     0.0001530830   0.047111975   0.027730993      479100985   15634278
   9  8  0     -729.7214359758    -0.0060128881   0.014738753   0.007584067      475619021   15779079
  10  9  0     -729.7216113930    -0.0001754173   0.006012289   0.003954032      461722064   16232883
  11 10  0     -729.7216503249    -0.0000389319   0.001172669   0.000730854      445990828   16602068
  12 11  0     -729.7216524062    -0.0000020812   0.000185261   0.000140745      426515038   17105013
 DFT CODE IS SWITCHING BACK TO THE FINE GRID
          * * *   INITIATING DIIS PROCEDURE   * * *
  13 12  0     -729.7018187476     0.0198336585   0.018796967   0.017530592      490065453   14791574
  14 13  0     -729.7026497269    -0.0008309793   0.001641018   0.001406396      469324857   16043271
  15 14  0     -729.7026462876     0.0000034393   0.001243064   0.002312411      442776251   16783250
  16 15  0     -729.7026589640    -0.0000126764   0.000252201   0.000533933      434742719   16938202
  17 16  0     -729.7026598910    -0.0000009270   0.000067271   0.000093254      414463372   17382798
  18 17  0     -729.7026599289    -0.0000000379   0.000027284   0.000058035      390472008   17827480
  19 18  0     -729.7026599424    -0.0000000135   0.000009406   0.000011319      370986127   18171579
  20 19  0     -729.7026599433    -0.0000000009   0.000002599   0.000004898      340287914   18778307

          -----------------
          DENSITY CONVERGED
          -----------------
     TIME TO FORM FOCK OPERATORS=      39.4 SECONDS (       2.0 SEC/ITER)
     FOCK TIME ON FIRST ITERATION=       1.5, LAST ITERATION=       2.6
     TIME TO SOLVE SCF EQUATIONS=       1.2 SECONDS (       0.1 SEC/ITER)

          ----------------------------
          DFT-D PARAMETERS AND RESULTS
          ----------------------------
 C6 COEFFICIENTS USED:
       2 C6 FOR ELEMENT   1
  Z=  1 CN= 0.912     C6(AA)=    3.03
  Z=  1 CN= 0.000     C6(AA)=    7.59
       5 C6 FOR ELEMENT   5
  Z=  5 CN= 0.000     C6(AA)=  107.18
  Z=  5 CN= 0.971     C6(AA)=   75.37
  Z=  5 CN= 1.944     C6(AA)=   53.11
  Z=  5 CN= 2.913     C6(AA)=   31.44
  Z=  5 CN= 4.586     C6(AA)=   28.03
       5 C6 FOR ELEMENT   6
  Z=  6 CN= 0.000     C6(AA)=   49.11
  Z=  6 CN= 0.987     C6(AA)=   43.25
  Z=  6 CN= 1.998     C6(AA)=   29.36
  Z=  6 CN= 2.999     C6(AA)=   25.78
  Z=  6 CN= 3.984     C6(AA)=   18.21
       4 C6 FOR ELEMENT   7
  Z=  7 CN= 0.000     C6(AA)=   25.27
  Z=  7 CN= 0.994     C6(AA)=   22.12
  Z=  7 CN= 2.014     C6(AA)=   19.68
  Z=  7 CN= 2.990     C6(AA)=   15.58
       2 C6 FOR ELEMENT   9
  Z=  9 CN= 0.000     C6(AA)=    9.69
  Z=  9 CN= 0.998     C6(AA)=    7.13

 #          XYZ [AU]             R0(AA) [ANG.]  CN         C6(AA)     C8(AA)   C10(AA) [AU]
  1  -9.32539  -1.59701   0.13262    6  0.566  3.427        22.7       657.2     23285.7
  2  -6.81626  -1.37215  -0.10132    7  0.495  3.257        15.6       344.0      9295.8
  3 -10.34540   0.71723   0.08005    7  0.495  3.256        15.6       344.0      9295.9
  4  -6.21448   1.16055  -0.30627    6  0.566  3.339        23.9       690.3     24458.1
  5  -8.42570   2.47095  -0.19366    6  0.566  3.341        23.8       689.8     24438.0
  6 -10.34807  -3.34499   0.33132    1  0.366  1.002         3.1        37.4       553.1
  7  -4.28907   1.79729  -0.50279    1  0.366  1.001         3.1        37.4       553.1
  8  -8.79159   4.47027  -0.27834    1  0.366  1.001         3.1        37.4       553.1
  9 -13.04767   1.30334   0.29165    6  0.566  4.048        18.3       528.9     18739.6
 10 -14.09521  -0.45321   0.50492    1  0.366  0.999         3.1        37.4       553.3
 11 -13.67601   2.27364  -1.41220    1  0.366  0.998         3.1        37.4       553.4
 12 -13.36313   2.49372   1.94178    1  0.366  0.998         3.1        37.4       553.4
 13  -4.96124  -3.44984  -0.12424    6  0.566  4.046        18.3       529.0     18741.0
 14  -5.94938  -5.22711   0.17882    1  0.366  0.999         3.1        37.4       553.4
 15  -3.59027  -3.14780   1.38105    1  0.366  0.998         3.1        37.4       553.4
 16  -3.99853  -3.48493  -1.94355    1  0.366  0.998         3.1        37.4       553.4
 17   9.48817   0.17663   0.02954    5  0.665  3.978        28.2      1122.8     54806.5
 18   6.78071  -0.01004  -0.05534    9  0.436  1.037         7.2       122.6      2569.8
 19  10.51378  -2.28217   0.11989    9  0.436  1.040         7.2       122.6      2569.6
 20  10.32888   1.44391  -2.15959    9  0.436  1.040         7.2       122.6      2569.6
 21  10.18317   1.54466   2.20920    9  0.436  1.040         7.2       122.6      2569.6

     MOLECULAR C6(AA) [AU] =      3866.00

           DFT-D V3(BJ)

 FUNCTIONAL: B3LYP   

 PARAMETERS
 S6       :    1.0000
 S8       :    1.9889
 A1       :    0.3981
 A2       :    4.4211
 K1-K3    :   16.0000    1.3333    4.0000

 EDISP /KCAL,AU:   -16.0393 -0.02556026

 E6    /KCAL :    -7.7383
 E8    /KCAL :    -8.3010
 % E8        : 51.75

 FINAL R-B3LYP ENERGY IS     -729.7282201989 AFTER  20 ITERATIONS
 DFT EXCHANGE + CORRELATION ENERGY =       -72.7682841938
 TOTAL ELECTRON NUMBER             =        94.0000736859
 GRIMME'S DISPERSION ENERGY                     =       -0.0255602556
 ENERGY WITHOUT GRIMME'S DISPERSION CORRECTION IS     -729.7026599433

          ------------
          EIGENVECTORS
          ------------

                      1          2          3          4          5
                  -24.4983   -24.4972   -24.4972   -24.4971   -14.5273
                     A          A          A          A          A   
    1  C  1  S    0.000000  -0.000000  -0.000000  -0.000000   0.000017
    2  C  1  S   -0.000000   0.000000   0.000000   0.000000  -0.000026
    3  C  1  X    0.000000  -0.000000  -0.000000  -0.000000   0.000039
    4  C  1  Y   -0.000000   0.000000   0.000000   0.000000  -0.000092
    5  C  1  Z   -0.000000   0.000000   0.000000  -0.000000   0.000002
    6  C  1  S   -0.000002   0.000000   0.000000   0.000000   0.000083
    7  C  1  X   -0.000002   0.000000   0.000000   0.000000  -0.000310
    8  C  1  Y    0.000001  -0.000000  -0.000001  -0.000000   0.000784
    9  C  1  Z    0.000000  -0.000000  -0.000000   0.000000  -0.000021
   10  C  1  S    0.000035  -0.000003  -0.000005  -0.000004  -0.002848
   11  C  1  X    0.000017  -0.000002  -0.000003  -0.000003   0.000081
   12  C  1  Y    0.000011   0.000004   0.000003   0.000004  -0.002123
   13  C  1  Z   -0.000002   0.000000   0.000000   0.000000   0.000121
   14  C  1  S    0.000125  -0.000009  -0.000002  -0.000008  -0.000099
   15  C  1  X    0.000025  -0.000026  -0.000014  -0.000027  -0.001778
   16  C  1  Y    0.000076   0.000030   0.000025   0.000032  -0.000089
   17  C  1  Z   -0.000008  -0.000000  -0.000001   0.000000   0.000159
   18  C  1 XX   -0.000001   0.000000   0.000000   0.000000  -0.000145
   19  C  1 YY   -0.000001   0.000000   0.000000   0.000000   0.000653
   20  C  1 ZZ   -0.000002   0.000000   0.000000   0.000000  -0.000002
   21  C  1 XY    0.000001  -0.000000  -0.000000  -0.000000  -0.000430
   22  C  1 XZ   -0.000000  -0.000000   0.000000   0.000000   0.000041
   23  C  1 YZ   -0.000000   0.000000   0.000000   0.000000  -0.000009
   24  N  2  S    0.000000   0.000000   0.000000  -0.000000  -0.000799
   25  N  2  S   -0.000000  -0.000000  -0.000000   0.000000  -0.000642
   26  N  2  X    0.000000   0.000000   0.000000   0.000000   0.000014
   27  N  2  Y   -0.000000   0.000000   0.000000   0.000000   0.000006
   28  N  2  Z    0.000000   0.000000   0.000000  -0.000000  -0.000002
   29  N  2  S    0.000001  -0.000000  -0.000000  -0.000000   0.000120
   30  N  2  X   -0.000000  -0.000000  -0.000000  -0.000000  -0.000151
   31  N  2  Y    0.000002  -0.000000  -0.000000  -0.000000   0.000006
   32  N  2  Z   -0.000000  -0.000000  -0.000000   0.000000   0.000013
   33  N  2  S   -0.000022   0.000001   0.000002   0.000001  -0.000410
   34  N  2  X    0.000012  -0.000001  -0.000003  -0.000002  -0.000365
   35  N  2  Y   -0.000030   0.000004   0.000006   0.000005   0.000243
   36  N  2  Z    0.000002   0.000000   0.000000  -0.000000   0.000017
   37  N  2  S   -0.000247   0.000038   0.000046   0.000045   0.006639
   38  N  2  X    0.000134  -0.000061  -0.000064  -0.000065  -0.003776
   39  N  2  Y   -0.000147   0.000034   0.000038   0.000038   0.004503
   40  N  2  Z   -0.000007   0.000001   0.000002   0.000004   0.000055
   41  N  2 XX    0.000000  -0.000000  -0.000000  -0.000000   0.000139
   42  N  2 YY   -0.000000   0.000000   0.000000   0.000000   0.000055
   43  N  2 ZZ    0.000000   0.000000  -0.000000   0.000000   0.000111
   44  N  2 XY   -0.000000   0.000000   0.000000   0.000000   0.000060
   45  N  2 XZ    0.000000   0.000000   0.000000   0.000000  -0.000007
   46  N  2 YZ   -0.000000  -0.000000  -0.000000  -0.000000  -0.000001
   47  N  3  S   -0.000000   0.000000   0.000000   0.000000   0.557940
   48  N  3  S    0.000000  -0.000000  -0.000000  -0.000000   0.462121
   49  N  3  X    0.000000  -0.000000  -0.000000  -0.000000   0.000193
   50  N  3  Y   -0.000000   0.000000  -0.000000   0.000000  -0.000160
   51  N  3  Z    0.000000  -0.000000  -0.000000   0.000000  -0.000005
   52  N  3  S    0.000001  -0.000000  -0.000000  -0.000000   0.020868
   53  N  3  X   -0.000000   0.000000   0.000000   0.000000  -0.000382
   54  N  3  Y    0.000000  -0.000000   0.000000  -0.000000   0.000253
   55  N  3  Z   -0.000000   0.000000   0.000000  -0.000000   0.000015
   56  N  3  S   -0.000005  -0.000001  -0.000001  -0.000001   0.008528
   57  N  3  X    0.000002  -0.000004  -0.000003  -0.000004   0.000504
   58  N  3  Y    0.000004   0.000000  -0.000000   0.000000  -0.000453
   59  N  3  Z   -0.000000   0.000000   0.000000   0.000000  -0.000012
   60  N  3  S    0.000183  -0.000076  -0.000079  -0.000084  -0.006013
   61  N  3  X    0.000134  -0.000040  -0.000045  -0.000044  -0.004816
   62  N  3  Y   -0.000018   0.000023   0.000023   0.000024   0.001067
   63  N  3  Z   -0.000010   0.000003   0.000003   0.000003   0.000365
   64  N  3 XX    0.000000  -0.000000  -0.000000  -0.000000  -0.007301
   65  N  3 YY    0.000000  -0.000000  -0.000000  -0.000000  -0.007329
   66  N  3 ZZ    0.000001  -0.000000  -0.000000  -0.000000  -0.007039
   67  N  3 XY   -0.000000  -0.000000  -0.000000  -0.000000   0.000022
   68  N  3 XZ    0.000000  -0.000000  -0.000000  -0.000000   0.000026
   69  N  3 YZ    0.000000   0.000000   0.000000   0.000000   0.000019
   70  C  4  S   -0.000000   0.000000   0.000000   0.000000   0.000006
   71  C  4  S    0.000000  -0.000000  -0.000000  -0.000000  -0.000024
   72  C  4  X   -0.000000   0.000000   0.000000   0.000000  -0.000011
   73  C  4  Y   -0.000000  -0.000000   0.000000  -0.000000  -0.000035
   74  C  4  Z    0.000000  -0.000000  -0.000000  -0.000000   0.000003
   75  C  4  S   -0.000003   0.000000   0.000000   0.000000   0.000195
   76  C  4  X   -0.000000  -0.000001  -0.000001  -0.000001  -0.000249
   77  C  4  Y    0.000001   0.000000  -0.000000   0.000000   0.000161
   78  C  4  Z   -0.000000   0.000000   0.000000   0.000000   0.000011
   79  C  4  S    0.000079  -0.000013  -0.000014  -0.000014  -0.000213
   80  C  4  X   -0.000057   0.000017   0.000018   0.000018  -0.000905
   81  C  4  Y   -0.000028  -0.000001   0.000002  -0.000000  -0.000434
   82  C  4  Z    0.000007  -0.000002  -0.000002  -0.000001   0.000104
   83  C  4  S    0.000914  -0.000163  -0.000255  -0.000191  -0.012109
   84  C  4  X   -0.000075   0.000078   0.000108   0.000088   0.003024
   85  C  4  Y    0.000099   0.000021  -0.000011   0.000022   0.000508
   86  C  4  Z    0.000002  -0.000006  -0.000007  -0.000009  -0.000303
   87  C  4 XX   -0.000001  -0.000000  -0.000000  -0.000000  -0.000131
   88  C  4 YY    0.000001  -0.000000  -0.000000  -0.000000  -0.000011
   89  C  4 ZZ   -0.000001   0.000000  -0.000000   0.000000   0.000058
   90  C  4 XY   -0.000001   0.000000  -0.000000  -0.000000  -0.000206
   91  C  4 XZ    0.000000   0.000000   0.000000   0.000000   0.000031
   92  C  4 YZ    0.000000   0.000000   0.000000   0.000000   0.000023
   93  C  5  S   -0.000000   0.000000   0.000000   0.000000   0.000010
   94  C  5  S    0.000000  -0.000000  -0.000000  -0.000000  -0.000014
   95  C  5  X    0.000000  -0.000000  -0.000000  -0.000000   0.000087
   96  C  5  Y   -0.000000  -0.000000  -0.000000  -0.000000   0.000087
   97  C  5  Z   -0.000000   0.000000   0.000000   0.000000  -0.000013
   98  C  5  S    0.000002  -0.000001  -0.000001  -0.000001  -0.000072
   99  C  5  X   -0.000003   0.000000   0.000000   0.000000  -0.000526
  100  C  5  Y    0.000001   0.000000  -0.000000   0.000000  -0.000467
  101  C  5  Z    0.000000   0.000000  -0.000000  -0.000000   0.000074
  102  C  5  S   -0.000061   0.000021   0.000022   0.000022  -0.001624
  103  C  5  X   -0.000006   0.000005   0.000004   0.000005   0.000512
  104  C  5  Y    0.000033  -0.000010  -0.000011  -0.000011   0.001637
  105  C  5  Z   -0.000002   0.000000   0.000000   0.000000  -0.000145
  106  C  5  S   -0.000783   0.000161   0.000265   0.000188   0.012722
  107  C  5  X   -0.000174   0.000020   0.000052   0.000024   0.000617
  108  C  5  Y    0.000113  -0.000055  -0.000060  -0.000062  -0.002936
  109  C  5  Z    0.000009  -0.000000  -0.000002   0.000002   0.000132
  110  C  5 XX    0.000001  -0.000000  -0.000000  -0.000000   0.000175
  111  C  5 YY    0.000002  -0.000000  -0.000000  -0.000000   0.000252
  112  C  5 ZZ    0.000001  -0.000000  -0.000000  -0.000000  -0.000015
  113  C  5 XY    0.000000   0.000000  -0.000000   0.000000   0.000529
  114  C  5 XZ    0.000000  -0.000000  -0.000000  -0.000000  -0.000052
  115  C  5 YZ   -0.000000  -0.000000  -0.000000  -0.000000  -0.000065
  116  H  6  S    0.000000   0.000000   0.000000   0.000000   0.000070
  117  H  6  S   -0.000003   0.000000   0.000000  -0.000000  -0.000006
  118  H  6  S    0.000021   0.000005   0.000004   0.000005  -0.000823
  119  H  6  S    0.000042   0.000008   0.000010   0.000009  -0.000851
  120  H  6  X   -0.000000   0.000000   0.000000   0.000000  -0.000102
  121  H  6  Y    0.000000   0.000000   0.000000  -0.000000   0.000153
  122  H  6  Z    0.000000  -0.000000  -0.000000  -0.000000  -0.000000
  123  H  7  S   -0.000002  -0.000000  -0.000000  -0.000000  -0.000004
  124  H  7  S    0.000016   0.000000   0.000000   0.000000   0.000569
  125  H  7  S   -0.000004  -0.000019  -0.000020  -0.000020   0.000130
  126  H  7  S   -0.000147  -0.000048  -0.000045  -0.000052  -0.000436
  127  H  7  X   -0.000002  -0.000000  -0.000000  -0.000000  -0.000157
  128  H  7  Y   -0.000000   0.000000   0.000000   0.000000  -0.000035
  129  H  7  Z    0.000000   0.000000   0.000000   0.000000   0.000014
  130  H  8  S    0.000000  -0.000000  -0.000000  -0.000000   0.000079
  131  H  8  S   -0.000007   0.000001   0.000001   0.000001  -0.000160
  132  H  8  S   -0.000002   0.000006   0.000004   0.000006  -0.000452
  133  H  8  S    0.000027   0.000024   0.000020   0.000026   0.000484
  134  H  8  X   -0.000000  -0.000000  -0.000000  -0.000000  -0.000109
  135  H  8  Y    0.000001  -0.000000  -0.000000  -0.000000  -0.000068
  136  H  8  Z   -0.000000   0.000000   0.000000   0.000000   0.000014
  137  C  9  S   -0.000000   0.000000  -0.000000   0.000000  -0.000004
  138  C  9  S    0.000000  -0.000000   0.000000  -0.000000   0.000023
  139  C  9  X    0.000000   0.000000   0.000000   0.000000  -0.000140
  140  C  9  Y   -0.000000  -0.000000  -0.000000  -0.000000   0.000027
  141  C  9  Z    0.000000  -0.000000  -0.000000  -0.000000   0.000011
  142  C  9  S   -0.000000   0.000000   0.000000   0.000000  -0.000003
  143  C  9  X    0.000000  -0.000000  -0.000000  -0.000000   0.000532
  144  C  9  Y    0.000001   0.000000   0.000000   0.000000  -0.000096
  145  C  9  Z   -0.000000   0.000000   0.000000   0.000000  -0.000043
  146  C  9  S    0.000006  -0.000004  -0.000004  -0.000004  -0.002618
  147  C  9  X    0.000003  -0.000001  -0.000001  -0.000001  -0.000884
  148  C  9  Y   -0.000003  -0.000001  -0.000000  -0.000001   0.000257
  149  C  9  Z   -0.000000   0.000000   0.000000   0.000000   0.000065
  150  C  9  S   -0.000018  -0.000037  -0.000024  -0.000040  -0.003164
  151  C  9  X   -0.000017  -0.000013  -0.000007  -0.000013  -0.000874
  152  C  9  Y   -0.000021   0.000005   0.000008   0.000006   0.000367
  153  C  9  Z    0.000004   0.000001   0.000000   0.000001   0.000064
  154  C  9 XX   -0.000000  -0.000000   0.000000  -0.000000   0.000513
  155  C  9 YY   -0.000000   0.000000   0.000000   0.000000  -0.000036
  156  C  9 ZZ    0.000000   0.000000   0.000000   0.000000  -0.000092
  157  C  9 XY   -0.000001   0.000000   0.000000   0.000000  -0.000135
  158  C  9 XZ    0.000000   0.000000   0.000000   0.000000  -0.000056
  159  C  9 YZ    0.000000  -0.000000  -0.000000  -0.000000   0.000008
  160  H 10  S   -0.000000   0.000000   0.000000   0.000000   0.000007
  161  H 10  S    0.000001  -0.000000  -0.000001  -0.000000   0.000469
  162  H 10  S    0.000008  -0.000002  -0.000001  -0.000002  -0.000341
  163  H 10  S   -0.000024  -0.000002   0.000002  -0.000001   0.000133
  164  H 10  X    0.000000  -0.000000  -0.000000  -0.000000   0.000057
  165  H 10  Y    0.000000  -0.000000  -0.000000  -0.000000   0.000095
  166  H 10  Z   -0.000000   0.000000   0.000000   0.000000  -0.000012
  167  H 11  S    0.000000  -0.000000  -0.000000  -0.000000   0.000022
  168  H 11  S   -0.000002   0.000000   0.000000   0.000000   0.000427
  169  H 11  S    0.000021  -0.000003  -0.000005  -0.000003  -0.000441
  170  H 11  S    0.000002  -0.000002  -0.000002  -0.000002  -0.000103
  171  H 11  X   -0.000000  -0.000000  -0.000000  -0.000000   0.000025
  172  H 11  Y    0.000000   0.000000  -0.000000   0.000000  -0.000058
  173  H 11  Z   -0.000000   0.000000   0.000000   0.000000   0.000091
  174  H 12  S    0.000000  -0.000000  -0.000000  -0.000000   0.000022
  175  H 12  S   -0.000002   0.000000   0.000001   0.000000   0.000427
  176  H 12  S    0.000020  -0.000003  -0.000005  -0.000004  -0.000443
  177  H 12  S    0.000000  -0.000001  -0.000002  -0.000002  -0.000119
  178  H 12  X   -0.000000  -0.000000  -0.000000  -0.000000   0.000008
  179  H 12  Y    0.000000  -0.000000  -0.000000   0.000000  -0.000069
  180  H 12  Z    0.000000  -0.000000  -0.000000  -0.000000  -0.000085
  181  C 13  S   -0.000000   0.000000   0.000000   0.000000  -0.000001
  182  C 13  S    0.000001  -0.000000  -0.000000  -0.000000   0.000004
  183  C 13  X   -0.000001   0.000000   0.000000   0.000000   0.000012
  184  C 13  Y   -0.000000   0.000000  -0.000000   0.000000  -0.000010
  185  C 13  Z   -0.000000  -0.000000  -0.000000  -0.000000  -0.000000
  186  C 13  S    0.000005  -0.000002  -0.000002  -0.000002  -0.000008
  187  C 13  X    0.000007  -0.000001  -0.000000  -0.000001  -0.000069
  188  C 13  Y    0.000001  -0.000000   0.000000  -0.000000   0.000053
  189  C 13  Z   -0.000001   0.000000   0.000000   0.000000   0.000003
  190  C 13  S   -0.000061   0.000019   0.000019   0.000020   0.000734
  191  C 13  X    0.000009  -0.000003  -0.000004  -0.000003   0.000071
  192  C 13  Y    0.000000   0.000002   0.000003   0.000002   0.000223
  193  C 13  Z   -0.000005  -0.000000  -0.000000   0.000000  -0.000021
  194  C 13  S   -0.000109   0.000141   0.000100   0.000147   0.004167
  195  C 13  X   -0.000010  -0.000010  -0.000009  -0.000011  -0.001070
  196  C 13  Y   -0.000059   0.000033   0.000015   0.000034   0.000747
  197  C 13  Z    0.000027   0.000001   0.000002  -0.000003   0.000036
  198  C 13 XX    0.000002  -0.000001  -0.000001  -0.000001   0.000009
  199  C 13 YY    0.000000  -0.000001  -0.000001  -0.000001   0.000027
  200  C 13 ZZ    0.000006  -0.000002  -0.000001  -0.000002   0.000021
  201  C 13 XY   -0.000001  -0.000000  -0.000000  -0.000000  -0.000017
  202  C 13 XZ    0.000000  -0.000000  -0.000000  -0.000000   0.000004
  203  C 13 YZ    0.000001  -0.000000  -0.000000  -0.000000   0.000002
  204  H 14  S   -0.000001  -0.000000  -0.000000  -0.000000  -0.000004
  205  H 14  S    0.000016  -0.000001   0.000000  -0.000001   0.000059
  206  H 14  S   -0.000028  -0.000004  -0.000004  -0.000004   0.000280
  207  H 14  S   -0.000029   0.000011   0.000001   0.000010  -0.000117
  208  H 14  X    0.000001   0.000000   0.000000   0.000000   0.000008
  209  H 14  Y    0.000002  -0.000000  -0.000000  -0.000000  -0.000015
  210  H 14  Z   -0.000000   0.000000  -0.000000   0.000000   0.000000
  211  H 15  S    0.000002  -0.000000  -0.000000  -0.000001   0.000004
  212  H 15  S   -0.000011   0.000003   0.000002   0.000004  -0.000073
  213  H 15  S    0.000027  -0.000010  -0.000004  -0.000011   0.000374
  214  H 15  S   -0.000027  -0.000023  -0.000017  -0.000017   0.000038
  215  H 15  X    0.000001  -0.000000  -0.000000  -0.000000  -0.000004
  216  H 15  Y   -0.000000   0.000000   0.000000   0.000000  -0.000005
  217  H 15  Z    0.000001  -0.000000  -0.000000  -0.000000   0.000018
  218  H 16  S    0.000002  -0.000001  -0.000000  -0.000001   0.000003
  219  H 16  S   -0.000014   0.000004   0.000002   0.000004  -0.000065
  220  H 16  S    0.000025  -0.000011  -0.000004  -0.000011   0.000379
  221  H 16  S    0.000035  -0.000014  -0.000011  -0.000019   0.000006
  222  H 16  X    0.000001  -0.000000  -0.000000  -0.000000  -0.000011
  223  H 16  Y   -0.000001   0.000000   0.000000   0.000000  -0.000010
  224  H 16  Z   -0.000002   0.000000   0.000000   0.000000  -0.000015
  225  B 17  S   -0.000006  -0.000004  -0.000004  -0.000004  -0.000000
  226  B 17  S    0.000008   0.000005   0.000005   0.000005   0.000001
  227  B 17  X    0.000005  -0.000003  -0.000005  -0.000004   0.000000
  228  B 17  Y    0.000000  -0.000006   0.000010  -0.000005   0.000001
  229  B 17  Z    0.000000  -0.000009  -0.000001   0.000009   0.000000
  230  B 17  S   -0.000079  -0.000078  -0.000082  -0.000084   0.000010
  231  B 17  X    0.000187  -0.000044  -0.000069  -0.000059  -0.000005
  232  B 17  Y    0.000013  -0.000094   0.000162  -0.000081  -0.000005
  233  B 17  Z    0.000006  -0.000146  -0.000013   0.000143  -0.000000
[...]
            202  C 13 XZ      1.98688     1.98760
            203  C 13 YZ      1.99121     1.99158
            204  H 14  S      0.00000     0.00000
            205  H 14  S     -0.00000     0.00000
            206  H 14  S      0.00001     0.00006
            207  H 14  S     -0.00033     0.00043
            208  H 14  X      0.00000     0.00000
            209  H 14  Y      0.00000     0.00000
            210  H 14  Z      0.00000     0.00000
            211  H 15  S      0.34939     0.40330
            212  H 15  S      0.94980     0.84077
            213  H 15  S      0.65090     0.55903
            214  H 15  S     -0.02428     0.15114
            215  H 15  X      0.00025     0.00025
            216  H 15  Y      0.00127     0.00134
            217  H 15  Z      0.00035     0.00037
            218  H 16  S      0.00000     0.00000
            219  H 16  S     -0.00001     0.00000
            220  H 16  S      0.00004     0.00004
            221  H 16  S     -0.00050     0.00017
            222  H 16  X      0.00000     0.00000
            223  H 16  Y      0.00000     0.00000
            224  H 16  Z      0.00000     0.00000
            225  B 17  S      1.12724     1.04598
            226  B 17  S      0.86053     0.88264
            227  B 17  X      0.00000     0.00001
            228  B 17  Y      0.00000     0.00000
            229  B 17  Z      0.00000     0.00000
            230  B 17  S      0.01293     0.05923
            231  B 17  X     -0.00001     0.00004
            232  B 17  Y     -0.00000     0.00000
            233  B 17  Z     -0.00000     0.00002
            234  B 17  S      0.00289     0.00640
            235  B 17  X      0.00002     0.00017
            236  B 17  Y      0.00000     0.00000
            237  B 17  Z      0.00001     0.00007
            238  B 17  S     -0.00024     0.00047
            239  B 17  X      0.00000     0.00003
            240  B 17  Y     -0.00000     0.00000
            241  B 17  Z      0.00000     0.00001
            242  B 17 XX     -0.00094     0.00013
            243  B 17 YY     -0.00088     0.00008
            244  B 17 ZZ     -0.00090     0.00008
            245  B 17 XY     -0.00000     0.00000
            246  B 17 XZ     -0.00001     0.00011
            247  B 17 YZ     -0.00000     0.00000
            248  F 18  S      1.07262     1.00239
            249  F 18  S      0.91174     0.92297
            250  F 18  X      0.00000     0.00000
            251  F 18  Y      0.00000     0.00000
            252  F 18  Z      0.00000     0.00000
            253  F 18  S      0.01880     0.06809
            254  F 18  X      0.00000     0.00002
            255  F 18  Y     -0.00000     0.00000
            256  F 18  Z      0.00000     0.00001
            257  F 18  S      0.00019     0.00545
            258  F 18  X      0.00013     0.00066
            259  F 18  Y      0.00000     0.00000
            260  F 18  Z      0.00005     0.00028
            261  F 18  S     -0.00050     0.00119
            262  F 18  X     -0.00032     0.00237
            263  F 18  Y     -0.00000     0.00000
            264  F 18  Z     -0.00013     0.00099
            265  F 18 XX     -0.00106     0.00004
            266  F 18 YY     -0.00107     0.00004
            267  F 18 ZZ     -0.00107     0.00004
            268  F 18 XY      0.00000     0.00000
            269  F 18 XZ      0.00000     0.00000
            270  F 18 YZ      0.00000     0.00000
            271  F 19  S      1.08977     1.04714
            272  F 19  S      0.90260     0.93563
            273  F 19  X      1.15655     1.20624
            274  F 19  Y      1.15635     1.20600
            275  F 19  Z      1.15613     1.20576
            276  F 19  S      2.21123     1.34597
            277  F 19  X      0.89237     0.90912
            278  F 19  Y      0.89243     0.90911
            279  F 19  Z      0.89249     0.90911
            280  F 19  S      1.45348     1.01618
            281  F 19  X      1.75901     1.42256
            282  F 19  Y      1.75781     1.42181
            283  F 19  Z      1.75660     1.42104
            284  F 19  S      0.60654     0.95290
            285  F 19  X      0.19199     0.46200
            286  F 19  Y      0.19335     0.46301
            287  F 19  Z      0.19474     0.46406
            288  F 19 XX     -0.08791     0.23407
            289  F 19 YY     -0.08784     0.23411
            290  F 19 ZZ     -0.08775     0.23414
            291  F 19 XY      0.00003     0.00003
            292  F 19 XZ      0.00002     0.00002
            293  F 19 YZ      0.00001     0.00001
            294  F 20  S      1.07031     1.00081
            295  F 20  S      0.91034     0.92318
            296  F 20  X      0.00000     0.00000
            297  F 20  Y      0.00000     0.00000
            298  F 20  Z      0.00000     0.00000
            299  F 20  S      0.02343     0.06994
            300  F 20  X     -0.00000     0.00000
            301  F 20  Y     -0.00000     0.00000
            302  F 20  Z     -0.00000     0.00000
            303  F 20  S     -0.00002     0.00549
            304  F 20  X     -0.00000     0.00000
            305  F 20  Y     -0.00000     0.00000
            306  F 20  Z     -0.00000     0.00000
            307  F 20  S     -0.00002     0.00047
            308  F 20  X     -0.00000     0.00000
            309  F 20  Y     -0.00000     0.00000
            310  F 20  Z     -0.00000     0.00000
            311  F 20 XX     -0.00135     0.00004
            312  F 20 YY     -0.00135     0.00004
            313  F 20 ZZ     -0.00135     0.00004
            314  F 20 XY      0.00000     0.00000
            315  F 20 XZ      0.00000     0.00000
            316  F 20 YZ      0.00000     0.00000
            317  F 21  S      1.07170     1.00183
            318  F 21  S      0.91117     0.92313
            319  F 21  X      0.00000     0.00000
            320  F 21  Y      0.00000     0.00000
            321  F 21  Z      0.00000     0.00000
            322  F 21  S      0.02069     0.06900
            323  F 21  X     -0.00000     0.00000
            324  F 21  Y     -0.00000     0.00000
            325  F 21  Z     -0.00000     0.00000
            326  F 21  S     -0.00001     0.00545
            327  F 21  X      0.00000     0.00000
            328  F 21  Y      0.00000     0.00000
            329  F 21  Z      0.00000     0.00000
            330  F 21  S     -0.00002     0.00046
            331  F 21  X     -0.00000     0.00000
            332  F 21  Y     -0.00000     0.00000
            333  F 21  Z     -0.00000     0.00000
            334  F 21 XX     -0.00117     0.00004
            335  F 21 YY     -0.00117     0.00004
            336  F 21 ZZ     -0.00117     0.00004
            337  F 21 XY      0.00000     0.00000
            338  F 21 XZ      0.00000     0.00000
            339  F 21 YZ      0.00000     0.00000

          ----- MULLIKEN ATOMIC OVERLAP POPULATIONS -----
          (OFF-DIAGONAL ELEMENTS NEED TO BE MULTIPLIED BY 2)

             1           2           3           4           5

    1   19.2529760
    2   -5.7263728  20.0524750
    3   -0.0000506   0.0000654   1.9998397
    4   -0.0000115   0.0000069   0.0000054   1.9998339
    5    0.0000000   0.0000000   0.0000056   0.0000127   1.9998721
    6    0.0031286  -0.0018079  -0.0000000  -0.0000000   0.0000000
    7   -0.0000001  -0.0000000  -0.0000079   0.0000614   0.0000429
    8   -0.0000000   0.0000000   0.0000000   0.0000000   0.0000000
    9   -0.0000002   0.0000044   0.0000619   0.0000797   0.0000092
   10    0.0015224  -0.0049962  -0.0000705  -0.0000098   0.0000000
   11    0.0000000   0.0000000   0.0000001   0.0000001   0.0000017
   12    0.0000000   0.0000000  -0.0000000   0.0000000   0.0000000
   13    0.0631813  -0.0219154  -0.0000000  -0.0000000   0.0000000
   14    0.0000004  -0.0000000  -0.0000000  -0.0000000   0.0000000
   15   -0.0021054   0.0006042   0.0000000   0.0000000  -0.0000000
   16    0.0000091  -0.0000040  -0.0000000  -0.0000000   0.0000000
   17   -0.0000043   0.0000027   0.0000000   0.0000000  -0.0000000
   18    0.0000001   0.0000001  -0.0000000  -0.0000000   0.0000000
   19   -0.0000000  -0.0000000   0.0000000   0.0000000   0.0000000
   20    0.0000000  -0.0000000  -0.0000000  -0.0000000   0.0000000
   21   -0.0000000  -0.0000000  -0.0000000  -0.0000000  -0.0000000

             6           7           8           9          10

    6    1.9717097
    7   -0.0000000   0.0000170
    8    0.0000000   0.0000000   0.0000000
    9   -0.0000000   0.0000047   0.0000000   1.9999733
   10    0.0000035  -0.0000001   0.0000000  -0.0000360   0.0015653
   11    0.0000000   0.0000000   0.0000000   0.0000000   0.0000000
   12   -0.0000000   0.0000000  -0.0000000   0.0000000  -0.0000000
   13   -0.0196054  -0.0000000   0.0000000  -0.0000000   0.0000064
   14    0.0000101  -0.0000000   0.0000000  -0.0000000   0.0000000
   15    0.0027683   0.0000000  -0.0000000   0.0000000  -0.0000008
   16    0.0000053  -0.0000000   0.0000000  -0.0000000   0.0000000
   17   -0.0000000   0.0000000  -0.0000000   0.0000000  -0.0000000
   18    0.0000000  -0.0000000   0.0000000  -0.0000000   0.0000000
   19    0.0000000  -0.0000000  -0.0000000   0.0000000   0.0000000
   20    0.0000000  -0.0000000   0.0000000  -0.0000000   0.0000000
   21   -0.0000000   0.0000000  -0.0000000   0.0000000  -0.0000000

            11          12          13          14          15

   11    0.0000002
   12    0.0000000   0.0000000
   13    0.0000000  -0.0000000  28.1870441
   14    0.0000000   0.0000000  -0.0005391   0.0002229
   15   -0.0000000   0.0000000   0.0210935  -0.0000098   1.9053270
   16    0.0000000  -0.0000000  -0.0006839   0.0000000   0.0000002
   17   -0.0000000   0.0000000  -0.0000000  -0.0000000   0.0000000
   18    0.0000000  -0.0000000   0.0000000   0.0000000  -0.0000000
   19    0.0000000  -0.0000000   0.0000000   0.0000000   0.0000000
   20    0.0000000  -0.0000000   0.0000001   0.0000000  -0.0000008
   21   -0.0000000   0.0000000  -0.0000000   0.0000000   0.0000000

            16          17          18          19          20

   16    0.0002096
   17   -0.0000000   2.0012185
   18    0.0000000  -0.0005905   1.9999640
   19    0.0000000  -0.0000002   0.0000000  18.0000004
   20   -0.0000000  -0.0000000   0.0000000   0.0000000   2.0000004
   21   -0.0000000  -0.0000000  -0.0000000   0.0000000   0.0000000

            21

   21    2.0000000

          TOTAL MULLIKEN AND LOWDIN ATOMIC POPULATIONS
       ATOM         MULL.POP.    CHARGE          LOW.POP.     CHARGE
    1 C            13.592273   -7.592273        13.777328   -7.777328
    2 N            14.298062   -7.298062        14.102839   -7.102839
    3 N             1.999849    5.000151         2.000280    4.999720
    4 C             1.999979    4.000021         1.999912    4.000088
    5 C             1.999944    4.000056         1.999983    4.000017
    6 H             1.956212   -0.956212         2.051110   -1.051110
    7 H             0.000118    0.999882         0.000099    0.999901
    8 H             0.000000    1.000000         0.000000    1.000000
    9 C             2.000097    3.999903         1.999823    4.000177
   10 H            -0.002016    1.002016         0.001457    0.998543
   11 H             0.000002    0.999998         0.000000    1.000000
   12 H             0.000000    1.000000         0.000000    1.000000
   13 C            28.228582  -22.228582        28.110252  -22.110252
   14 H            -0.000315    1.000315         0.000493    0.999507
   15 H             1.927676   -0.927676         1.956203   -0.956203
   16 H            -0.000464    1.000464         0.000214    0.999786
   17 B             2.000626    2.999374         1.995465    3.004535
   18 F             1.999374    7.000626         2.004539    6.995461
   19 F            18.000000   -9.000000        18.000000   -9.000000
   20 F             2.000000    7.000000         2.000002    6.999998
   21 F             2.000000    7.000000         2.000000    7.000000

          -------------------------------
          BOND ORDER AND VALENCE ANALYSIS     BOND ORDER THRESHOLD=0.050
          -------------------------------

                   BOND                       BOND                       BOND
  ATOM PAIR DIST  ORDER      ATOM PAIR DIST  ORDER      ATOM PAIR DIST  ORDER
    1   2  1.733  2.571        1  13  6.882  0.160        6  13  3.451  0.145
   13  15  5.286  0.120

                       TOTAL       BONDED        FREE
      ATOM            VALENCE     VALENCE     VALENCE
    1 C                 2.730       2.730       0.000
    2 N                 2.629       2.629       0.000
    3 N                 0.001       0.001       0.000
    4 C                 0.000       0.000       0.000
    5 C                 0.000       0.000      -0.000
    6 H                 0.168       0.168      -0.000
    7 H                 0.000       0.000      -0.000
    8 H                 0.000       0.000       0.000
    9 C                 0.001       0.001      -0.000
   10 H                -0.004      -0.004       0.000
   11 H                 0.000       0.000       0.000
   12 H                 0.000       0.000      -0.000
   13 C                 0.468       0.468      -0.000
   14 H                -0.001      -0.001      -0.000
   15 H                 0.132       0.132      -0.000
   16 H                -0.001      -0.001      -0.000
   17 B                -0.001      -0.001      -0.000
   18 F                -0.001      -0.001       0.000
   19 F                -0.000      -0.000       0.000
   20 F                -0.000      -0.000      -0.000
   21 F                 0.000       0.000       0.000

          ---------------------
          ELECTROSTATIC MOMENTS
          ---------------------

 POINT   1           X           Y           Z (BOHR)    CHARGE
                 0.000000    0.000000    0.000000       -0.00 (A.U.)
         DX          DY          DZ         /D/  (DEBYE)
   471.919951 -917.748323-1324.483993 1679.055768
 ...... END OF PROPERTY EVALUATION ......
 CPU     0: STEP CPU TIME=     0.21 TOTAL CPU TIME=        431.0 (      7.2 MIN)
 TOTAL WALL CLOCK TIME=       1175.0 SECONDS, CPU UTILIZATION IS    36.68%
  $VIB   
          IVIB=   0 IATOM=   0 ICOORD=   0 E=        0.0000000000
  1.706372284E-02-5.468127386E-03 8.443779115E-04-2.387778394E-02-5.957879265E-03
  7.530524543E-03-1.382286001E-03 9.850116768E-03-7.108714255E-03-6.465433155E-03
  3.495722216E-02-1.924689166E-02 1.184045735E-02-2.668806426E-02 1.396696531E-02
 -8.077898077E-03-1.258043332E-02 8.377112665E-03 1.995615260E-03 8.195274801E-04
 -6.389016667E-04 4.390386048E-05 2.138935960E-02-1.248455914E-02 1.740345555E-02
 -7.686166478E-03 1.749211763E-03-5.697324312E-03-1.487865777E-02 9.396728350E-03
 -6.813349124E-03 8.204731992E-04-2.315023342E-02-5.098648362E-03 2.326557707E-02
  1.250478604E-02 1.878435872E-03-4.455441666E-03 7.476812749E-03-5.356135727E-03
 -1.521743117E-02 1.101996598E-02 5.208931943E-03 8.673879004E-03 7.050845984E-03
  7.309642667E-03-6.663843373E-03-1.724822340E-02-5.179029966E-02-4.505654552E-03
  2.105209832E-03 2.146205753E-03 2.017862203E-03 1.533057130E-03 2.257698214E-02
 -4.411160169E-02-2.807850785E-02 1.028442959E-02 4.497839270E-02-2.478550822E-02
  1.680737554E-02 1.440890753E-03 4.918594135E-02
  4.719199508E+02-9.177483233E+02-1.324483993E+03
 ......END OF GEOMETRY SEARCH......
 CPU     0: STEP CPU TIME=     0.01 TOTAL CPU TIME=        431.0 (      7.2 MIN)
 TOTAL WALL CLOCK TIME=       1175.0 SECONDS, CPU UTILIZATION IS    36.68%
 AN INPUT FILE FOR -MOLPLT- HAS BEEN PUNCHED.
              2296171  WORDS OF DYNAMIC MEMORY USED
 EXECUTION OF GAMESS TERMINATED NORMALLY Thu Aug 15 21:55:19 2019
 DDI: 263640 bytes (0.3 MB / 0 MWords) used by master data server.

 ----------------------------------------
 CPU timing information for all processes
 ========================================
 0: 420.122 + 10.938 = 431.60
 1: 419.575 + 5.203 = 424.778
 2: 417.366 + 6.661 = 424.28
 3: 415.280 + 5.167 = 420.447
 4: 412.99 + 8.290 = 420.390
 5: 415.322 + 5.197 = 420.520
 6: 412.692 + 6.738 = 419.430
 7: 416.276 + 4.452 = 420.729
 8: 404.572 + 8.66 = 412.639
 9: 412.669 + 3.713 = 416.382
 10: 409.267 + 5.75 = 414.342
 11: 415.901 + 3.755 = 419.656
 12: 411.487 + 6.715 = 418.202
 13: 411.270 + 3.785 = 415.55
 14: 411.545 + 5.367 = 416.913
 15: 414.195 + 3.793 = 417.989
 ----------------------------------------
 ddikick.x: exited gracefully.
----- accounting info -----
Files used on the master node node001 were:
-rw-r--r-- 1 mdi0316 at2  6420921 Aug 15  2019 /data/scratch-no-backup/mdi0316/rungms/1244190/tmp/gms_SCAN_from_ISOLATED_c1mim_bf4_T_5_P_270_R_10.0_N311_B3LYP_OPT_DFT.dat
-rw-r--r-- 1 mdi0316 at2     3840 Aug 15 21:35 /data/scratch-no-backup/mdi0316/rungms/1244190/tmp/gms_SCAN_from_ISOLATED_c1mim_bf4_T_5_P_270_R_10.0_N311_B3LYP_OPT_DFT.F05
-rw-r--r-- 1 mdi0316 at2 11648320 Aug 15  2019 /data/scratch-no-backup/mdi0316/rungms/1244190/tmp/gms_SCAN_from_ISOLATED_c1mim_bf4_T_5_P_270_R_10.0_N311_B3LYP_OPT_DFT.F10
-rw-r--r-- 1 mdi0316 at2  5476072 Aug 15  2019 /data/scratch-no-backup/mdi0316/rungms/1244190/tmp/gms_SCAN_from_ISOLATED_c1mim_bf4_T_5_P_270_R_10.0_N311_B3LYP_OPT_DFT.F22
-rw-r--r-- 1 mdi0316 at2  5476072 Aug 15  2019 /data/scratch-no-backup/mdi0316/rungms/1244190/tmp/gms_SCAN_from_ISOLATED_c1mim_bf4_T_5_P_270_R_10.0_N311_B3LYP_OPT_DFT.F22.001
-rw-r--r-- 1 mdi0316 at2  5476072 Aug 15  2019 /data/scratch-no-backup/mdi0316/rungms/1244190/tmp/gms_SCAN_from_ISOLATED_c1mim_bf4_T_5_P_270_R_10.0_N311_B3LYP_OPT_DFT.F22.002
-rw-r--r-- 1 mdi0316 at2  5476072 Aug 15  2019 /data/scratch-no-backup/mdi0316/rungms/1244190/tmp/gms_SCAN_from_ISOLATED_c1mim_bf4_T_5_P_270_R_10.0_N311_B3LYP_OPT_DFT.F22.003
-rw-r--r-- 1 mdi0316 at2  5476072 Aug 15  2019 /data/scratch-no-backup/mdi0316/rungms/1244190/tmp/gms_SCAN_from_ISOLATED_c1mim_bf4_T_5_P_270_R_10.0_N311_B3LYP_OPT_DFT.F22.004
-rw-r--r-- 1 mdi0316 at2  5476072 Aug 15  2019 /data/scratch-no-backup/mdi0316/rungms/1244190/tmp/gms_SCAN_from_ISOLATED_c1mim_bf4_T_5_P_270_R_10.0_N311_B3LYP_OPT_DFT.F22.005
-rw-r--r-- 1 mdi0316 at2  5476072 Aug 15  2019 /data/scratch-no-backup/mdi0316/rungms/1244190/tmp/gms_SCAN_from_ISOLATED_c1mim_bf4_T_5_P_270_R_10.0_N311_B3LYP_OPT_DFT.F22.006
-rw-r--r-- 1 mdi0316 at2  5476072 Aug 15  2019 /data/scratch-no-backup/mdi0316/rungms/1244190/tmp/gms_SCAN_from_ISOLATED_c1mim_bf4_T_5_P_270_R_10.0_N311_B3LYP_OPT_DFT.F22.007
-rw-r--r-- 1 mdi0316 at2  5476072 Aug 15  2019 /data/scratch-no-backup/mdi0316/rungms/1244190/tmp/gms_SCAN_from_ISOLATED_c1mim_bf4_T_5_P_270_R_10.0_N311_B3LYP_OPT_DFT.F22.008
-rw-r--r-- 1 mdi0316 at2  5476072 Aug 15  2019 /data/scratch-no-backup/mdi0316/rungms/1244190/tmp/gms_SCAN_from_ISOLATED_c1mim_bf4_T_5_P_270_R_10.0_N311_B3LYP_OPT_DFT.F22.009
-rw-r--r-- 1 mdi0316 at2  5476072 Aug 15  2019 /data/scratch-no-backup/mdi0316/rungms/1244190/tmp/gms_SCAN_from_ISOLATED_c1mim_bf4_T_5_P_270_R_10.0_N311_B3LYP_OPT_DFT.F22.010
-rw-r--r-- 1 mdi0316 at2  5476072 Aug 15  2019 /data/scratch-no-backup/mdi0316/rungms/1244190/tmp/gms_SCAN_from_ISOLATED_c1mim_bf4_T_5_P_270_R_10.0_N311_B3LYP_OPT_DFT.F22.011
-rw-r--r-- 1 mdi0316 at2  5476072 Aug 15  2019 /data/scratch-no-backup/mdi0316/rungms/1244190/tmp/gms_SCAN_from_ISOLATED_c1mim_bf4_T_5_P_270_R_10.0_N311_B3LYP_OPT_DFT.F22.012
-rw-r--r-- 1 mdi0316 at2  5476072 Aug 15  2019 /data/scratch-no-backup/mdi0316/rungms/1244190/tmp/gms_SCAN_from_ISOLATED_c1mim_bf4_T_5_P_270_R_10.0_N311_B3LYP_OPT_DFT.F22.013
-rw-r--r-- 1 mdi0316 at2  5476072 Aug 15  2019 /data/scratch-no-backup/mdi0316/rungms/1244190/tmp/gms_SCAN_from_ISOLATED_c1mim_bf4_T_5_P_270_R_10.0_N311_B3LYP_OPT_DFT.F22.014
-rw-r--r-- 1 mdi0316 at2  5476072 Aug 15  2019 /data/scratch-no-backup/mdi0316/rungms/1244190/tmp/gms_SCAN_from_ISOLATED_c1mim_bf4_T_5_P_270_R_10.0_N311_B3LYP_OPT_DFT.F22.015
Thu Aug 15 21:55:23 CEST 2019
0.192u 0.070s 19:38.92 0.0%	0+0k 7+15io 0pf+0w
