ITEM: TIMESTEP
0
ITEM: NUMBER OF ATOMS
160
ITEM: BOX BOUNDS pp pp pp
-4.0000000000000000e+01 4.0000000000000000e+01
-4.0000000000000000e+01 4.0000000000000000e+01
-4.0000000000000000e+01 4.0000000000000000e+01
ITEM: ATOMS id mass type x y z 
98 67 2 -39.7606 -32.9289 -38.5958 
99 15 3 -38.5677 -30.9368 -39.9535 
100 29 4 39.2864 -33.8146 -35.8472 
39 86.8 1 -16.156 -13.3535 -32.9216 
80 67 2 18.0709 -15.2414 -33.552 
81 15 3 18.8192 -17.5833 -32.461 
82 29 4 15.7137 -13.6906 -34.6859 
50 67 2 27.8684 -15.3072 -37.487 
51 15 3 27.0469 -13.204 -38.9485 
132 15 3 29.8991 -13.6806 -30.3279 
52 29 4 30.2465 -16.5196 -36.0303 
15 86.8 1 -10.805 -0.25449 -37.2088 
23 86.8 1 10.6912 6.56633 -39.6724 
60 15 3 -28.8016 18.875 -38.7411 
59 67 2 -31.0293 20.1598 -39.5295 
56 67 2 -28.4115 27.7147 -35.2537 
57 15 3 -27.6224 25.1594 -34.9669 
58 29 4 -28.6973 29.9993 -37.2402 
17 86.8 1 -5.49156 23.3027 -31.7598 
78 15 3 1.8091 22.1818 -39.0194 
26 86.8 1 -11.4076 33.0511 -30.9969 
4 86.8 1 -0.921555 31.4227 -38.5649 
34 86.8 1 10.3028 38.9862 -39.2581 
142 29 4 -32.2577 -39.7795 -20.6511 
9 86.8 1 29.0907 -33.235 -21.3637 
121 29 4 20.692 -32.2635 -20.7459 
119 67 2 19.5337 -29.4986 -21.2571 
120 15 3 20.001 -27.119 -22.4205 
20 86.8 1 28.7539 -12.8915 -27.5041 
131 67 2 27.232 -13.6428 -29.9816 
133 29 4 24.9466 -14.7501 -28.3089 
37 86.8 1 -26.977 37.0688 -25.3265 
27 86.8 1 -5.67109 -34.0726 -17.9854 
53 67 2 9.09742 -33.817 -10.2096 
55 29 4 6.61679 -34.2993 -11.9011 
36 86.8 1 -38.6043 -22.1061 -16.6375 
6 86.8 1 23.8607 -12.786 -14.7544 
31 86.8 1 -1.50903 -2.29971 -11.1654 
70 29 4 -4.69551 -0.787675 -18.2909 
68 67 2 -5.37584 1.57929 -16.5072 
69 15 3 -4.33667 3.64642 -15.1353 
3 86.8 1 -36.8171 14.2976 -19.4253 
104 67 2 -29.2217 14.6175 -10.0595 
105 15 3 -28.3787 13.5974 -12.4012 
140 67 2 -32.4112 37.8297 -18.7782 
141 15 3 -31.2414 36.6273 -16.6757 
149 67 2 -17.6286 35.2958 -14.2897 
150 15 3 -15.4892 36.9236 -14.2019 
151 29 4 -18.5117 32.3916 -14.4727 
115 29 4 18.4168 30.4831 -18.6517 
113 67 2 20.387 32.4428 -19.8866 
114 15 3 22.8335 33.5304 -19.6286 
54 15 3 11.5826 -34.6999 -9.68115 
145 29 4 -0.0290965 -28.3139 -2.0809 
143 67 2 0.715832 -25.3828 -1.76334 
144 15 3 2.43594 -23.4715 -2.55266 
122 67 2 38.6261 -22.7151 -5.47473 
123 15 3 39.652 -21.8436 -7.80341 
124 29 4 37.3554 -25.099 -4.07835 
125 67 2 -36.8296 -17.9695 -4.78929 
126 15 3 -35.1415 -16.0263 -5.56971 
127 29 4 -38.5432 -18.9685 -2.48434 
44 67 2 2.73372 -12.2714 -3.20626 
45 15 3 5.07382 -12.3746 -4.5284 
46 29 4 0.486709 -13.9528 -2.03528 
91 29 4 1.81825 -11.2423 -4.2634 
71 67 2 16.1497 -11.0825 -4.00909 
72 15 3 18.8343 -11.2316 -3.93576 
73 29 4 13.5794 -12.6292 -3.51032 
90 15 3 -1.37928 -7.40213 -6.44892 
89 67 2 0.730328 -9.01645 -6.02669 
116 67 2 -30.0062 8.29125 -4.63363 
118 29 4 -30.3442 5.44833 -5.65875 
18 86.8 1 -27.1548 9.41929 -9.98672 
117 15 3 -29.5393 9.77844 -2.44159 
7 86.8 1 22.1578 5.48786 -5.50354 
106 29 4 -30.6603 13.9657 -7.46092 
148 29 4 3.90088 11.1397 -1.50406 
108 15 3 -29.1279 22.6288 -0.531135 
2 86.8 1 7.29414 32.6479 -7.57523 
14 86.8 1 4.3055 -37.4315 9.39068 
32 86.8 1 22.9409 -32.624 9.22324 
38 86.8 1 16.9722 -28.6115 7.058 
1 86.8 1 -39.161 -19.1491 0.890539 
137 67 2 -13.9535 -12.2349 3.56335 
138 15 3 -12.8665 -10.3492 5.14355 
139 29 4 -14.1223 -15.2281 3.05391 
28 86.8 1 39.1683 -18.9824 2.40829 
10 86.8 1 -19.8872 -4.86895 7.63172 
16 86.8 1 -8.07335 -8.75822 0.604183 
29 86.8 1 -3.90748 7.0544 3.26793 
109 29 4 -33.1542 19.9149 1.95308 
146 67 2 1.9445 10.9902 0.819203 
147 15 3 1.48216 11.8133 3.33782 
107 67 2 -31.5893 21.9295 0.297933 
74 67 2 -16.0867 -30.8016 16.399 
76 29 4 -16.4474 -33.6371 17.4368 
101 67 2 -6.8918 -31.2178 15.883 
103 29 4 -6.23186 -34.1709 16.1843 
75 15 3 -14.4377 -28.6766 16.3867 
86 67 2 -4.41535 -25.7301 10.722 
87 15 3 -6.19312 -23.7315 10.4389 
88 29 4 -1.77661 -26.5191 12.0111 
102 15 3 -8.11597 -29.1262 17.0498 
30 86.8 1 -35.8338 -18.1154 14.9413 
5 86.8 1 -0.514897 -13.8698 11.0873 
11 86.8 1 26.393 -12.3701 14.9609 
92 67 2 -17.765 7.00213 12.3528 
93 15 3 -15.2213 7.6051 11.7198 
94 29 4 -19.5763 4.84404 13.4971 
155 67 2 -18.2647 6.44077 12.9538 
156 15 3 -19.4098 4.25586 11.8816 
157 29 4 -17.1443 9.19729 12.3263 
128 67 2 -32.7653 18.4811 15.581 
129 15 3 -35.3887 18.3981 16.1687 
66 15 3 -20.9616 11.0674 10.8534 
130 29 4 -29.9733 18.0151 16.6921 
65 67 2 -19.2047 11.3133 12.8751 
67 29 4 -17.1077 13.1354 14.112 
21 86.8 1 -21.1885 -35.1457 26.4985 
160 29 4 30.9204 -37.9912 28.7973 
8 86.8 1 -17.9652 -21.7039 22.7922 
62 67 2 -1.18749 -27.4951 29.6473 
63 15 3 -3.64463 -27.1462 28.6103 
134 67 2 9.77863 -26.6274 26.0619 
136 29 4 9.64481 -28.9427 24.0951 
135 15 3 11.0162 -25.7057 28.265 
110 67 2 35.6574 -27.8252 24.9217 
111 15 3 33.7768 -28.1313 23.0231 
112 29 4 36.5453 -26.0906 27.2561 
12 86.8 1 8.19587 -12.022 26.709 
42 15 3 -37.703 -3.17059 29.031 
152 67 2 19.1917 -0.0486527 22.6633 
153 15 3 19.3608 -2.72683 22.4801 
25 86.8 1 -16.831 1.22978 28.9206 
83 67 2 10.5597 9.819 24.814 
85 29 4 10.8643 6.9113 23.9775 
154 29 4 20.5515 2.56527 21.9111 
40 86.8 1 -33.0376 16.9085 21.8025 
84 15 3 11.8496 11.9336 25.8624 
24 86.8 1 25.9009 35.8006 20.0383 
158 67 2 31.8098 39.2725 27.813 
159 15 3 33.8224 37.4885 27.8526 
19 86.8 1 -6.79422 -30.4281 34.6635 
22 86.8 1 0.331293 -31.9656 34.3006 
64 29 4 0.514636 -29.3041 31.4017 
41 67 2 -38.1057 -3.11269 31.6898 
43 29 4 -39.7866 -4.24956 33.9546 
95 67 2 -1.49194 -2.96999 30.3131 
96 15 3 -3.43845 -1.12111 30.1472 
97 29 4 -0.739257 -5.65651 31.5228 
33 86.8 1 -24.9414 9.94055 30.8116 
13 86.8 1 18.8545 7.20409 39.2077 
61 29 4 -33.8408 19.7765 39.377 
77 67 2 2.68142 23.1159 38.6138 
79 29 4 4.49549 22.5237 36.2462 
47 67 2 -14.0457 34.5657 35.9556 
48 15 3 -14.3124 35.0711 33.3272 
49 29 4 -14.9319 35.4259 38.7344 
35 86.8 1 29.1662 36.7299 38.7815 
ITEM: TIMESTEP
43
ITEM: NUMBER OF ATOMS
160
ITEM: BOX BOUNDS pp pp pp
-4.0000000000000000e+01 4.0000000000000000e+01
-4.0000000000000000e+01 4.0000000000000000e+01
-4.0000000000000000e+01 4.0000000000000000e+01
ITEM: ATOMS id mass type x y z 
98 67 2 -39.7596 -32.928 -38.5985 
99 15 3 -38.5667 -30.9355 -39.9554 
100 29 4 39.2844 -33.8169 -35.8426 
39 86.8 1 -16.156 -13.3535 -32.9216 
80 67 2 18.0732 -15.2429 -33.5509 
81 15 3 18.8207 -17.585 -32.4599 
82 29 4 15.71 -13.6872 -34.6881 
50 67 2 27.8661 -15.306 -37.4884 
51 15 3 27.0454 -13.2024 -38.9499 
132 15 3 29.9027 -13.6791 -30.3233 
52 29 4 30.2503 -16.5223 -36.0274 
15 86.8 1 -10.805 -0.25449 -37.2088 
23 86.8 1 10.6912 6.56633 -39.6724 
60 15 3 -28.7993 18.8747 -38.7402 
59 67 2 -31.0265 20.1601 -39.5284 
56 67 2 -28.4112 27.7124 -35.2517 
57 15 3 -27.6219 25.1571 -34.9659 
58 29 4 -28.698 30.0038 -37.2432 
17 86.8 1 -5.49156 23.3027 -31.7598 
78 15 3 1.80784 22.1817 -39.0173 
26 86.8 1 -11.4076 33.051 -30.9969 
4 86.8 1 -0.921554 31.4227 -38.5649 
34 86.8 1 10.3028 38.9862 -39.2581 
142 29 4 -32.2581 -39.7755 -20.6548 
9 86.8 1 29.0907 -33.235 -21.3637 
121 29 4 20.6934 -32.2686 -20.7446 
119 67 2 19.5326 -29.4959 -21.2576 
120 15 3 20.0007 -27.1166 -22.4213 
20 86.8 1 28.7512 -12.8955 -27.517 
131 67 2 27.2357 -13.6382 -29.9772 
133 29 4 24.9419 -14.7522 -28.3051 
37 86.8 1 -26.977 37.0688 -25.3265 
27 86.8 1 -5.67109 -34.0726 -17.9854 
53 67 2 9.09988 -33.8166 -10.2079 
55 29 4 6.61202 -34.2995 -11.9038 
36 86.8 1 -38.6043 -22.1061 -16.6375 
6 86.8 1 23.8607 -12.786 -14.7544 
31 86.8 1 -1.50904 -2.29971 -11.1654 
70 29 4 -4.69503 -0.792078 -18.2942 
68 67 2 -5.37645 1.58163 -16.5054 
69 15 3 -4.33653 3.64846 -15.1339 
3 86.8 1 -36.8171 14.2976 -19.4253 
104 67 2 -29.2203 14.618 -10.0621 
105 15 3 -28.3776 13.597 -12.4034 
140 67 2 -32.4113 37.8273 -18.7763 
141 15 3 -31.2409 36.6256 -16.6739 
149 67 2 -17.6277 35.2986 -14.2895 
150 15 3 -15.4878 36.9257 -14.2018 
151 29 4 -18.514 32.3867 -14.473 
115 29 4 18.4127 30.4798 -18.65 
113 67 2 20.389 32.4447 -19.8878 
114 15 3 22.8355 33.5318 -19.6291 
54 15 3 11.5849 -34.7001 -9.6801 
145 29 4 -0.0309912 -28.3191 -2.08098 
143 67 2 0.716605 -25.3799 -1.76306 
144 15 3 2.43706 -23.4693 -2.55285 
122 67 2 38.6274 -22.7128 -5.47608 
123 15 3 39.6531 -21.842 -7.80504 
124 29 4 37.3531 -25.1028 -4.0752 
125 67 2 -36.8285 -17.9686 -4.79044 
126 15 3 -35.1404 -16.0256 -5.57091 
127 29 4 -38.5462 -18.9706 -2.47872 
44 67 2 2.49991 -12.1815 -3.58265 
45 15 3 5.01655 -12.1979 -4.52936 
46 29 4 0.432695 -13.8003 -2.03364 
91 29 4 1.94605 -11.3519 -4.0955 
71 67 2 16.1522 -11.081 -4.00957 
72 15 3 18.8367 -11.231 -3.93596 
73 29 4 13.5744 -12.6313 -3.50964 
90 15 3 -1.26729 -7.55417 -6.35031 
89 67 2 0.835635 -9.17393 -5.9175 
116 67 2 -30.0058 8.29406 -4.63262 
118 29 4 -30.3449 5.44355 -5.66131 
18 86.8 1 -27.155 9.41961 -9.98674 
117 15 3 -29.539 9.78051 -2.44017 
7 86.8 1 22.1578 5.48786 -5.50354 
106 29 4 -30.6627 13.9652 -7.45601 
148 29 4 3.90391 11.1395 -1.50861 
108 15 3 -29.126 22.6301 -0.532299 
2 86.8 1 7.29414 32.6479 -7.57523 
14 86.8 1 4.3055 -37.4315 9.39068 
32 86.8 1 22.9409 -32.6239 9.22324 
38 86.8 1 16.9722 -28.6115 7.05801 
1 86.8 1 -39.2131 -19.1437 0.935128 
137 67 2 -13.9533 -12.2319 3.56389 
138 15 3 -12.8659 -10.3469 5.14449 
139 29 4 -14.1231 -15.2333 3.05242 
28 86.8 1 39.221 -18.9877 2.36026 
10 86.8 1 -19.8872 -4.86895 7.63172 
16 86.8 1 -8.07338 -8.75824 0.604206 
29 86.8 1 -3.90745 7.05442 3.26793 
109 29 4 -33.1576 19.9117 1.95586 
146 67 2 1.9426 10.9901 0.82152 
147 15 3 1.481 11.8136 3.34006 
107 67 2 -31.5877 21.9315 0.296314 
74 67 2 -16.0862 -30.7988 16.398 
76 29 4 -16.4487 -33.6422 17.4383 
101 67 2 -6.89248 -31.2148 15.8827 
103 29 4 -6.23033 -34.1761 16.1842 
75 15 3 -14.4367 -28.6743 16.3862 
86 67 2 -4.41795 -25.7293 10.7208 
87 15 3 -6.19518 -23.7303 10.4381 
88 29 4 -1.77197 -26.5212 12.0131 
102 15 3 -8.11687 -29.1238 17.0502 
30 86.8 1 -35.8338 -18.1154 14.9413 
5 86.8 1 -0.514898 -13.8698 11.0873 
11 86.8 1 26.393 -12.3701 14.9609 
92 67 2 -17.7091 7.05603 12.3479 
93 15 3 -15.1792 7.69116 11.691 
94 29 4 -19.5558 4.76463 13.1444 
155 67 2 -18.292 6.44426 13.0908 
156 15 3 -19.5208 4.24459 12.1508 
157 29 4 -17.131 9.15236 12.3081 
128 67 2 -32.7681 18.4816 15.58 
129 15 3 -35.3912 18.3983 16.1685 
66 15 3 -20.963 11.0647 10.8529 
130 29 4 -29.968 18.0145 16.6935 
65 67 2 -19.2011 11.3068 12.8706 
67 29 4 -17.1034 13.1368 14.1154 
21 86.8 1 -21.1885 -35.1457 26.4985 
160 29 4 30.9181 -37.9864 28.7987 
8 86.8 1 -17.9652 -21.7039 22.7922 
62 67 2 -1.18911 -27.4938 29.6459 
63 15 3 -3.64632 -27.1452 28.6091 
134 67 2 9.77879 -26.6251 26.0639 
136 29 4 9.64403 -28.9465 24.0912 
135 15 3 11.0168 -25.7041 28.267 
110 67 2 35.6565 -27.8269 24.9194 
111 15 3 33.7755 -28.1322 23.0211 
112 29 4 36.5475 -26.0879 27.2604 
12 86.8 1 8.19587 -12.022 26.709 
42 15 3 -37.702 -3.17007 29.0287 
152 67 2 19.1904 -0.0512528 22.664 
153 15 3 19.3602 -2.72927 22.4804 
25 86.8 1 -16.831 1.22978 28.9206 
83 67 2 10.5594 9.82187 24.8148 
85 29 4 10.8641 6.9061 23.9758 
154 29 4 20.5533 2.57032 21.9101 
40 86.8 1 -33.0376 16.9086 21.8023 
84 15 3 11.85 11.936 25.8633 
24 86.8 1 25.9009 35.8006 20.0383 
158 67 2 31.8108 39.2699 27.8121 
159 15 3 33.8237 37.4864 27.8522 
19 86.8 1 -6.79418 -30.4281 34.6634 
22 86.8 1 0.331327 -31.9647 34.2996 
64 29 4 0.517882 -29.3074 31.4053 
41 67 2 -38.1041 -3.1116 31.6875 
43 29 4 -39.7892 -4.25117 33.9591 
95 67 2 -1.49273 -2.96734 30.312 
96 15 3 -3.43967 -1.119 30.1465 
97 29 4 -0.737241 -5.66126 31.5246 
33 86.8 1 -24.9414 9.94055 30.8116 
13 86.8 1 18.8545 7.20409 39.2077 
61 29 4 -33.8459 19.7765 39.3751 
77 67 2 2.67964 23.1164 38.6162 
79 29 4 4.49852 22.5233 36.2416 
47 67 2 -14.0449 34.5649 35.9528 
48 15 3 -14.3121 35.0709 33.3247 
49 29 4 -14.933 35.4269 38.7397 
35 86.8 1 29.1662 36.7299 38.7815 
