ITEM: TIMESTEP
0
ITEM: NUMBER OF ATOMS
56
ITEM: BOX BOUNDS pp pp pp
0.0000000000000000e+00 1.0000000000000000e+01
0.0000000000000000e+00 1.0000000000000000e+01
0.0000000000000000e+00 1.0000000000000000e+01
ITEM: ATOMS id type xs ys zs
1 1 0 0 0
2 2 0.0656525 0.052007 0.00465997
3 2 0.945756 0.951116 0.958713
4 1 0.529439 0.976151 0.00678302
5 2 0.43281 0.950453 0.00819961
6 2 0.537751 0.073396 0.985017
7 1 0.0263511 0.49647 0.972168
8 2 0.0433011 0.533975 0.0633039
9 2 0.930348 0.469555 0.964528
10 1 0.499487 0.51709 0.965517
11 2 0.532529 0.424448 0.983553
12 2 0.467985 0.558461 0.0509301
13 1 0.966949 0.98201 0.49191
14 2 0.0583316 0.946524 0.472171
15 2 0.974719 0.0714656 0.535919
16 1 0.498056 0.963285 0.511388
17 2 0.53598 0.0385122 0.565261
18 2 0.465964 0.998203 0.423352
19 1 0.993065 0.464323 0.51267
20 2 0.0331768 0.538096 0.566968
21 2 0.973758 0.497581 0.420362
22 1 0.510797 0.507155 0.463756
23 2 0.458715 0.427244 0.493776
24 2 0.530488 0.565601 0.542469
25 2 0.988591 0.996877 0.0366269
26 3 0.0656525 0.052007 0.00465997
27 3 0.945756 0.951116 0.958713
28 2 0.529439 0.976151 0.00678302
29 3 0.43281 0.950453 0.00819961
30 3 0.537751 0.073396 0.985017
31 2 0.0263511 0.49647 0.972168
32 3 0.0433011 0.533975 0.0633039
33 3 0.930348 0.469555 0.964528
34 2 0.499487 0.51709 0.965517
35 3 0.532529 0.424448 0.983553
36 3 0.467985 0.558461 0.0509301
37 2 0.966949 0.98201 0.49191
38 3 0.0583316 0.946524 0.472171
39 3 0.974719 0.0714656 0.535919
40 2 0.498056 0.963285 0.511388
41 3 0.53598 0.0385122 0.565261
42 3 0.465964 0.998203 0.423352
43 2 0.993065 0.464323 0.51267
44 3 0.0331768 0.538096 0.566968
45 3 0.973758 0.497581 0.420362
46 2 0.510797 0.507155 0.463756
47 3 0.458715 0.427244 0.493776
48 3 0.530488 0.565601 0.542469
49 1 0 0 0
50 1 0.5 0 0
51 1 0 0.5 0
52 1 0.5 0.5 0
53 1 0 0 0.5
54 1 0.5 0 0.5
55 1 0 0.5 0.5
56 1 0.5 0.5 0.5
ITEM: TIMESTEP
1
ITEM: NUMBER OF ATOMS
56
ITEM: BOX BOUNDS pp pp pp
0.0000000000000000e+00 1.0000000000000000e+01
0.0000000000000000e+00 1.0000000000000000e+01
0.0000000000000000e+00 1.0000000000000000e+01
ITEM: ATOMS id type xs ys zs
1 1 0 0 0
2 2 0.0656525 0.052007 0.00465997
3 2 0.945756 0.951116 0.958713
4 1 0.529439 0.976151 0.00678302
5 2 0.43281 0.950453 0.00819961
6 2 0.537751 0.073396 0.985017
7 1 0.0263511 0.49647 0.972168
8 2 0.0433011 0.533975 0.0633039
9 2 0.930348 0.469555 0.964528
10 1 0.499487 0.51709 0.965517
11 2 0.532529 0.424448 0.983553
12 2 0.467985 0.558461 0.0509301
13 1 0.966949 0.98201 0.49191
14 2 0.0583316 0.946524 0.472171
15 2 0.974719 0.0714656 0.535919
16 1 0.498056 0.963285 0.511388
17 2 0.53598 0.0385122 0.565261
18 2 0.465964 0.998203 0.423352
19 1 0.993065 0.464323 0.51267
20 2 0.0331768 0.538096 0.566968
21 2 0.973758 0.497581 0.420362
22 1 0.510797 0.507155 0.463756
23 2 0.458715 0.427244 0.493776
24 2 0.530488 0.565601 0.542469
25 2 0.988591 0.996877 0.0366269
26 3 0.0656525 0.052007 0.00465997
27 3 0.945756 0.951116 0.958713
28 2 0.529439 0.976151 0.00678302
29 3 0.43281 0.950453 0.00819961
30 3 0.537751 0.073396 0.985017
31 2 0.0263511 0.49647 0.972168
32 3 0.0433011 0.533975 0.0633039
33 3 0.930348 0.469555 0.964528
34 2 0.499487 0.51709 0.965517
35 3 0.532529 0.424448 0.983553
36 3 0.467985 0.558461 0.0509301
37 2 0.966949 0.98201 0.49191
38 3 0.0583316 0.946524 0.472171
39 3 0.974719 0.0714656 0.535919
40 2 0.498056 0.963285 0.511388
41 3 0.53598 0.0385122 0.565261
42 3 0.465964 0.998203 0.423352
43 2 0.993065 0.464323 0.51267
44 3 0.0331768 0.538096 0.566968
45 3 0.973758 0.497581 0.420362
46 2 0.510797 0.507155 0.463756
47 3 0.458715 0.427244 0.493776
48 3 0.530488 0.565601 0.542469
49 1 0 0 0
50 1 0.5 0 0
51 1 0 0.5 0
52 1 0.5 0.5 0
53 1 0 0 0.5
54 1 0.5 0 0.5
55 1 0 0.5 0.5
56 1 0.5 0.5 0.5
ITEM: TIMESTEP
2
ITEM: NUMBER OF ATOMS
56
ITEM: BOX BOUNDS pp pp pp
0.0000000000000000e+00 1.0000000000000000e+01
0.0000000000000000e+00 1.0000000000000000e+01
0.0000000000000000e+00 1.0000000000000000e+01
ITEM: ATOMS id type xs ys zs
1 1 0 0 0
2 2 0.0656525 0.052007 0.00465997
3 2 0.945756 0.951116 0.958713
4 1 0.529439 0.976151 0.00678302
5 2 0.43281 0.950453 0.00819961
6 2 0.537751 0.073396 0.985017
7 1 0.0263511 0.49647 0.972168
8 2 0.0433011 0.533975 0.0633039
9 2 0.930348 0.469555 0.964528
10 1 0.499487 0.51709 0.965517
11 2 0.532529 0.424448 0.983553
12 2 0.467985 0.558461 0.0509301
13 1 0.966949 0.98201 0.49191
14 2 0.0583316 0.946524 0.472171
15 2 0.974719 0.0714656 0.535919
16 1 0.498056 0.963285 0.511388
17 2 0.53598 0.0385122 0.565261
18 2 0.465964 0.998203 0.423352
19 1 0.993065 0.464323 0.51267
20 2 0.0331768 0.538096 0.566968
21 2 0.973758 0.497581 0.420362
22 1 0.510797 0.507155 0.463756
23 2 0.458715 0.427244 0.493776
24 2 0.530488 0.565601 0.542469
25 2 0.988591 0.996877 0.0366269
26 3 0.0656525 0.052007 0.00465997
27 3 0.945756 0.951116 0.958713
28 2 0.529439 0.976151 0.00678302
29 3 0.43281 0.950453 0.00819961
30 3 0.537751 0.073396 0.985017
31 2 0.0263511 0.49647 0.972168
32 3 0.0433011 0.533975 0.0633039
33 3 0.930348 0.469555 0.964528
34 2 0.499487 0.51709 0.965517
35 3 0.532529 0.424448 0.983553
36 3 0.467985 0.558461 0.0509301
37 2 0.966949 0.98201 0.49191
38 3 0.0583316 0.946524 0.472171
39 3 0.974719 0.0714656 0.535919
40 2 0.498056 0.963285 0.511388
41 3 0.53598 0.0385122 0.565261
42 3 0.465964 0.998203 0.423352
43 2 0.993065 0.464323 0.51267
44 3 0.0331768 0.538096 0.566968
45 3 0.973758 0.497581 0.420362
46 2 0.510797 0.507155 0.463756
47 3 0.458715 0.427244 0.493776
48 3 0.530488 0.565601 0.542469
49 1 0 0 0
50 1 0.5 0 0
51 1 0 0.5 0
52 1 0.5 0.5 0
53 1 0 0 0.5
54 1 0.5 0 0.5
55 1 0 0.5 0.5
56 1 0.5 0.5 0.5
