----- GAMESS execution script 'rungms' -----
This job is running on host node004
under operating system Linux at Wed Mar 27 15:27:33 CET 2019
Available scratch disk space (Kbyte units) at beginning of the job is
Filesystem     1K-blocks    Used Available Use% Mounted on
/dev/sda3        1998672 1256456    637360  67% /tmp
GAMESS temporary binary files will be written to /tmp
GAMESS supplementary output files will be written to /tmp
Copying input file gms_bf4_N311_B3LYP_OPT_ZMAT_DFT.inp to your run's scratch directory...
cp gms_bf4_N311_B3LYP_OPT_ZMAT_DFT.inp /tmp/gms_bf4_N311_B3LYP_OPT_ZMAT_DFT.F05
unset echo
 
Assuming a single but multicore node.
 
/home/mdi0316/CODES/gamess_sockets/ddikick.x /home/mdi0316/CODES/gamess_sockets/gamess.00.x gms_bf4_N311_B3LYP_OPT_ZMAT_DFT -ddi 1 16 node004:cpus=16 -scr /tmp

 Distributed Data Interface kickoff program.
 Initiating 16 compute processes on 1 nodes to run the following command:
 /home/mdi0316/CODES/gamess_sockets/gamess.00.x gms_bf4_N311_B3LYP_OPT_ZMAT_DFT 

          ******************************************************
          *         GAMESS VERSION = 14 FEB 2018 (R1)         *
          *             FROM IOWA STATE UNIVERSITY             *
          * M.W.SCHMIDT, K.K.BALDRIDGE, J.A.BOATZ, S.T.ELBERT, *
          *   M.S.GORDON, J.H.JENSEN, S.KOSEKI, N.MATSUNAGA,   *
          *          K.A.NGUYEN, S.J.SU, T.L.WINDUS,           *
          *       TOGETHER WITH M.DUPUIS, J.A.MONTGOMERY       *
          *         J.COMPUT.CHEM.  14, 1347-1363(1993)        *
          **************** 64 BIT LINUX VERSION ****************

  SINCE 1993, STUDENTS AND POSTDOCS WORKING AT IOWA STATE UNIVERSITY
  AND ALSO IN THEIR VARIOUS JOBS AFTER LEAVING ISU HAVE MADE IMPORTANT
  CONTRIBUTIONS TO THE CODE:
     IVANA ADAMOVIC, CHRISTINE AIKENS, YURI ALEXEEV, POOJA ARORA,
     ANDREY ASADCHEV, ROB BELL, PRADIPTA BANDYOPADHYAY, JONATHAN BENTZ,
     BRETT BODE, KURT BRORSEN, CALEB CARLIN, GALINA CHABAN, WEI CHEN,
     CHEOL HO CHOI, PAUL DAY, ALBERT DEFUSCO, NUWAN DESILVA, TIM DUDLEY,
     DMITRI FEDOROV, ALEX FINDLATER, GRAHAM FLETCHER, MARK FREITAG,
     KURT GLAESEMANN, ANASTASIA GUININA,
     DAN KEMP, GRANT MERRILL, NORIYUKI MINEZAWA, JONATHAN MULLIN,
     TAKESHI NAGATA, SEAN NEDD, HEATHER NETZLOFF, BOSILJKA NJEGIC, RYAN OLSON,
     MIKE PAK, BUU PHAM,
     SPENCER PRUITT, LUKE ROSKOP, JIM SHOEMAKER, LYUDMILA SLIPCHENKO,
     TONY SMITH, SAROM SOK LEANG, JIE SONG, TETSUYA TAKETSUGU, SIMON WEBB,
     PENG XU, SOOHAENG YOO, FEDERICO ZAHARIEV

  ADDITIONAL CODE HAS BEEN PROVIDED BY COLLABORATORS IN OTHER GROUPS:
     IOWA STATE UNIVERSITY:
          JOE IVANIC, AARON WEST, LAIMUTIS BYTAUTAS, KLAUS RUEDENBERG
     UNIVERSITY OF TOKYO: KIMIHIKO HIRAO, TAKAHITO NAKAJIMA,
          TAKAO TSUNEDA, MUNEAKI KAMIYA, SUSUMU YANAGISAWA,
          KIYOSHI YAGI, MAHITO CHIBA, SEIKEN TOKURA, NAOAKI KAWAKAMI
     UNIVERSITY OF AARHUS: FRANK JENSEN
     UNIVERSITY OF IOWA: VISVALDAS KAIRYS, HUI LI
     NATIONAL INST. OF STANDARDS AND TECHNOLOGY: WALT STEVENS, DAVID GARMER
     UNIVERSITY OF PISA: BENEDETTA MENNUCCI, JACOPO TOMASI
     UNIVERSITY OF MEMPHIS: HENRY KURTZ, PRAKASHAN KORAMBATH
     UNIVERSITY OF ALBERTA: TOBY ZENG, MARIUSZ KLOBUKOWSKI
     UNIVERSITY OF NEW ENGLAND: MARK SPACKMAN
     MIE UNIVERSITY: HIROAKI UMEDA
     NAT. INST. OF ADVANCED INDUSTRIAL SCIENCE AND TECHNOLOGY: KAZUO KITAURA
     MICHIGAN STATE UNIVERSITY:
          KAROL KOWALSKI, MARTA WLOCH, JEFFREY GOUR, JESSE LUTZ,
          WEI LI, PIOTR PIECUCH
     UNIVERSITY OF SILESIA: MONIKA MUSIAL, STANISLAW KUCHARSKI
     FACULTES UNIVERSITAIRES NOTRE-DAME DE LA PAIX:
          OLIVIER QUINET, BENOIT CHAMPAGNE
     UNIVERSITY OF CALIFORNIA - SANTA BARBARA: BERNARD KIRTMAN
     INSTITUTE FOR MOLECULAR SCIENCE:
          KAZUYA ISHIMURA, MICHIO KATOUDA, AND SHIGERU NAGASE
     UNIVERSITY OF NOTRE DAME: ANNA POMOGAEVA, DAN CHIPMAN
     KYUSHU UNIVERSITY:
          HARUYUKI NAKANO,
          FENG LONG GU, JACEK KORCHOWIEC, MARCIN MAKOWSKI, AND YURIKO AOKI,
          HIROTOSHI MORI AND EISAKU MIYOSHI
     PENNSYLVANIA STATE UNIVERSITY:
          TZVETELIN IORDANOV, CHET SWALINA, JONATHAN SKONE,
          SHARON HAMMES-SCHIFFER
     WASEDA UNIVERSITY:
          MASATO KOBAYASHI, TOMOKO AKAMA, TSUGUKI TOUMA,
          TAKESHI YOSHIKAWA, YASUHIRO IKABATA, JUNJI SEINO,
          YUYA NAKAJIMA, HIROMI NAKAI
     NANJING UNIVERSITY: SHUHUA LI
     UNIVERSITY OF NEBRASKA:
          PEIFENG SU, DEJUN SI, NANDUN THELLAMUREGE, YALI WANG, HUI LI
     UNIVERSITY OF ZURICH: ROBERTO PEVERATI, KIM BALDRIDGE
     N. COPERNICUS UNIVERSITY AND JACKSON STATE UNIVERSITY:
          MARIA BARYSZ
     UNIVERSITY OF COPENHAGEN: Jimmy Kromann, CASPER STEINMANN
     TOKYO INSTITUTE OF TECHNOLOGY: HIROYA NAKATA
     NAGOYA UNIVERSITY: YOSHIO NISHIMOTO, STEPHAN IRLE
     MOSCOW STATE UNIVERSITY: VLADIMIR MIRONOV


 PARALLEL VERSION RUNNING ON       16 PROCESSORS IN        1 NODES.

 EXECUTION OF GAMESS BEGUN Wed Mar 27 15:27:34 2019

            ECHO OF THE FIRST FEW INPUT CARDS -
 INPUT CARD> $CONTRL                                                                        
 INPUT CARD>  SCFTYP=RHF                                                                    
 INPUT CARD>  EXETYP=RUN                                                                    
 INPUT CARD>  RUNTYP=OPTIMIZE                                                               
 INPUT CARD>  MOLPLT=.T.                                                                    
 INPUT CARD>  NOSYM=1                                                                       
 INPUT CARD>  MAXIT=200                                                                     
 INPUT CARD>  ICHARG=-1                                                                     
 INPUT CARD>  MULT=1                                                                        
 INPUT CARD>  AIMPAC=.F.                                                                    
 INPUT CARD>  COORD=ZMT                                                                     
 INPUT CARD>  NZVAR=9                                                                       
 INPUT CARD>  DFTTYP=B3LYP                                                                  
 INPUT CARD> $END                                                                           
 INPUT CARD> $SYSTEM                                                                        
 INPUT CARD>  MWORDS=3                                                                      
 INPUT CARD>  MEMDDI=256                                                                    
 INPUT CARD> $END                                                                           
 INPUT CARD> $STATPT                                                                        
 INPUT CARD>  OPTTOL=0.0001                                                                 
 INPUT CARD>  NSTEP=1000                                                                    
 INPUT CARD>  PROJCT=.F.                                                                    
 INPUT CARD> $END                                                                           
 INPUT CARD> $SCF                                                                           
 INPUT CARD>  DIRSCF=.T.                                                                    
 INPUT CARD>  NCONV=5                                                                       
 INPUT CARD>  DIIS=.T.                                                                      
 INPUT CARD>  DAMP=.T.                                                                      
 INPUT CARD> $END                                                                           
 INPUT CARD> $BASIS                                                                         
 INPUT CARD>  GBASIS=N311                                                                   
 INPUT CARD>  NDFUNC=1                                                                      
 INPUT CARD>  NPFUNC=1                                                                      
 INPUT CARD>  DIFFSP=.T.                                                                    
 INPUT CARD>  DIFFS=.T.                                                                     
 INPUT CARD>  NGAUSS=6                                                                      
 INPUT CARD>  POLAR=POPN311                                                                 
 INPUT CARD> $END                                                                           
 INPUT CARD> $DFT                                                                           
 INPUT CARD>  IDCVER=4                                                                      
 INPUT CARD>  DC=.T.                                                                        
 INPUT CARD> $END                                                                           
 INPUT CARD> $DATA                                                                          
 INPUT CARD>  check                                                                         
 INPUT CARD>  C1                                                                            
 INPUT CARD>  B                                                                             
 INPUT CARD>  F 1 FF1                                                                       
 INPUT CARD>  F 1 FF2 2 FFF2                                                                
 INPUT CARD>  F 1 FF3 2 FFF3 3 dih3                                                         
 INPUT CARD>  F 1 FF4 2 FFF4 3 dih4                                                         
    3000000 WORDS OF MEMORY AVAILABLE

     BASIS OPTIONS
     -------------
     GBASIS=N311         IGAUSS=       6      POLAR=POPN311 
     NDFUNC=       1     NFFUNC=       0     DIFFSP=       T
     NPFUNC=       1      DIFFS=       T     BASNAM=        


     RUN TITLE
     ---------
   check                                                                         

 THE POINT GROUP OF THE MOLECULE IS C1      
 THE ORDER OF THE PRINCIPAL AXIS IS     0

 YOUR FULLY SUBSTITUTED Z-MATRIX IS
 B   
 F      1   1.4539000
 F      1   1.4539000  2  109.4700
 F      1   1.4539000  2  109.4700  3  120.0000  0
 F      1   1.4539000  2  109.4700  3  240.0000  0

 THE MOMENTS OF INERTIA ARE (AMU-ANGSTROM**2)
 IXX=   107.091   IYY=   107.091   IZZ=   107.093

 ATOM      ATOMIC                      COORDINATES (BOHR)
           CHARGE         X                   Y                   Z
 B           5.0     0.0000000000        0.0000000000       -0.0000361515
 F           9.0     0.0000000000        0.0000000000        2.7474364621
 F           9.0     2.5903615318        0.0000000000       -0.9158051709
 F           9.0    -1.2951807659       -2.2433188915       -0.9158051709
 F           9.0    -1.2951807659        2.2433188915       -0.9158051709

          INTERNUCLEAR DISTANCES (ANGS.)
          ------------------------------

                1 B          2 F          3 F          4 F          5 F     

   1 B       0.0000000    1.4539000 *  1.4539000 *  1.4539000 *  1.4539000 *
   2 F       1.4539000 *  0.0000000    2.3741909 *  2.3741909 *  2.3741909 *
   3 F       1.4539000 *  2.3741909 *  0.0000000    2.3742266 *  2.3742266 *
   4 F       1.4539000 *  2.3741909 *  2.3742266 *  0.0000000    2.3742266 *
   5 F       1.4539000 *  2.3741909 *  2.3742266 *  2.3742266 *  0.0000000  

  * ... LESS THAN  3.000


     ATOMIC BASIS SET
     ----------------
 THE CONTRACTED PRIMITIVE FUNCTIONS HAVE BEEN UNNORMALIZED
 THE CONTRACTED BASIS FUNCTIONS ARE NOW NORMALIZED TO UNITY

  SHELL TYPE  PRIMITIVE        EXPONENT          CONTRACTION COEFFICIENT(S)

 B         

      1   S       1          2858.8900000    0.002153749067
      1   S       2           428.1400000    0.016582292818
      1   S       3            97.5282000    0.082186964406
      1   S       4            27.9693000    0.276617880201
      1   S       5             8.2157700    0.629315727452
      1   S       6             1.1127800    0.173769924743

      2   L       7            13.2415000    0.117442942252    0.041809998866
      2   L       8             3.0016600    0.918001548610    0.236574993582
      2   L       9             0.9128560   -0.002651048696    0.816213977857

      3   L      10             0.3154540    1.000000000000    1.000000000000

      4   L      11             0.0988563    1.000000000000    1.000000000000

      5   L      12             0.0315000    1.000000000000    1.000000000000

      6   D      13             0.4010000    1.000000000000

 F         

      7   S      14         11427.1000000    0.001800930156
      7   S      15          1722.3500000    0.013741901192
      7   S      16           395.7460000    0.068133405910
      7   S      17           115.1390000    0.233325020240
      7   S      18            33.6026000    0.589086051102
      7   S      19             4.9190100    0.299505025981

      8   L      20            55.4441000    0.114536015543    0.035460887379
      8   L      21            12.6323000    0.920512124917    0.237450915490
      8   L      22             3.7175600   -0.003378040458    0.820457707996

      9   L      23             1.1654500    1.000000000000    1.000000000000

     10   L      24             0.3218920    1.000000000000    1.000000000000

     11   L      25             0.1076000    1.000000000000    1.000000000000

     12   D      26             1.7500000    1.000000000000

 F         

     13   S      27         11427.1000000    0.001800930156
     13   S      28          1722.3500000    0.013741901192
     13   S      29           395.7460000    0.068133405910
     13   S      30           115.1390000    0.233325020240
     13   S      31            33.6026000    0.589086051102
     13   S      32             4.9190100    0.299505025981

     14   L      33            55.4441000    0.114536015543    0.035460887379
     14   L      34            12.6323000    0.920512124917    0.237450915490
     14   L      35             3.7175600   -0.003378040458    0.820457707996

     15   L      36             1.1654500    1.000000000000    1.000000000000

     16   L      37             0.3218920    1.000000000000    1.000000000000

     17   L      38             0.1076000    1.000000000000    1.000000000000

     18   D      39             1.7500000    1.000000000000

 F         

     19   S      40         11427.1000000    0.001800930156
     19   S      41          1722.3500000    0.013741901192
     19   S      42           395.7460000    0.068133405910
     19   S      43           115.1390000    0.233325020240
     19   S      44            33.6026000    0.589086051102
     19   S      45             4.9190100    0.299505025981

     20   L      46            55.4441000    0.114536015543    0.035460887379
     20   L      47            12.6323000    0.920512124917    0.237450915490
     20   L      48             3.7175600   -0.003378040458    0.820457707996

     21   L      49             1.1654500    1.000000000000    1.000000000000

     22   L      50             0.3218920    1.000000000000    1.000000000000

     23   L      51             0.1076000    1.000000000000    1.000000000000

     24   D      52             1.7500000    1.000000000000

 F         

     25   S      53         11427.1000000    0.001800930156
     25   S      54          1722.3500000    0.013741901192
     25   S      55           395.7460000    0.068133405910
     25   S      56           115.1390000    0.233325020240
     25   S      57            33.6026000    0.589086051102
     25   S      58             4.9190100    0.299505025981

     26   L      59            55.4441000    0.114536015543    0.035460887379
     26   L      60            12.6323000    0.920512124917    0.237450915490
     26   L      61             3.7175600   -0.003378040458    0.820457707996

     27   L      62             1.1654500    1.000000000000    1.000000000000

     28   L      63             0.3218920    1.000000000000    1.000000000000

     29   L      64             0.1076000    1.000000000000    1.000000000000

     30   D      65             1.7500000    1.000000000000

 TOTAL NUMBER OF BASIS SET SHELLS             =   30
 NUMBER OF CARTESIAN GAUSSIAN BASIS FUNCTIONS =  115
 NUMBER OF ELECTRONS                          =   42
 CHARGE OF MOLECULE                           =   -1
 SPIN MULTIPLICITY                            =    1
 NUMBER OF OCCUPIED ORBITALS (ALPHA)          =   21
 NUMBER OF OCCUPIED ORBITALS (BETA )          =   21
 TOTAL NUMBER OF ATOMS                        =    5
 THE NUCLEAR REPULSION ENERGY IS      173.8372209615

     LEBEDEV GRID-BASED DFT OPTIONS
     ------------------------------
     DFTTYP=B3LYP   
     NRAD  =      96     NLEB  =     302
     NRAD0 =      24     NLEB0 =     110
     SWOFF =    5.00E-03 (PURE SCF -> DFT)
     SWITCH=    3.00E-04 (COARSE -> TIGHT GRID)
     THRESH=    0.00E+00 GTHRE=    1.00E+00

 GRIMME'S EMPIRICAL DISPERSION CORRECTION= T
  ________________________________

           DFTD3 V1.2             
   S.GRIMME, UNIVERSITY MUENSTER  
   WED MAR 10 08:38:00 CET 2010   
  ________________________________

 PLEASE CITE DFT-D3 WORK DONE WITH THIS CODE AS:
 S. GRIMME, J. ANTONY, S. EHRLICH AND H. KRIEG,
 J. CHEM. PHYS, 132 (2010), 154104.
 IF USED WITH BJ-DAMPING CITE ALSO
 S. GRIMME, S. EHRLICH AND L. GOERIGK,
 J. COMPUT. CHEM. 32 (2011), 1456-1465

 DFT-D3 PARAMETERS WILL BE LOADED AND PRINTED
 BEFORE THE RESULTS

 IMPLEMENTATION OF DFT-D IN GAMESS BY:
 R.PEVERATI AND K.K.BALDRIDGE, 
 J.CHEM.THEORY COMPUT. 4,(2008), 2030-2048


     $CONTRL OPTIONS
     ---------------
 SCFTYP=RHF          RUNTYP=OPTIMIZE     EXETYP=RUN     
 MPLEVL=       0     CITYP =NONE         CCTYP =NONE         VBTYP =NONE    
 DFTTYP=B3LYP        TDDFT =NONE    
 MULT  =       1     ICHARG=      -1     NZVAR =       9     COORD =ZMT     
 PP    =NONE         RELWFN=NONE         LOCAL =NONE         NUMGRD=       F
 ISPHER=      -1     NOSYM =       1     MAXIT =     200     UNITS =ANGS    
 PLTORB=       F     MOLPLT=       T     AIMPAC=       F     FRIEND=        
 NPRINT=       7     IREST =       0     GEOM  =INPUT   
 NORMF =       0     NORMP =       0     ITOL  =      20     ICUT  =       9
 INTTYP=BEST         GRDTYP=BEST         QMTTOL= 1.0E-06

     $SYSTEM OPTIONS
     ---------------
  REPLICATED MEMORY=     3000000 WORDS (ON EVERY NODE).
 DISTRIBUTED MEMDDI=         256 MILLION WORDS IN AGGREGATE,
 MEMDDI DISTRIBUTED OVER  16 PROCESSORS IS    16000000 WORDS/PROCESSOR.
 TOTAL MEMORY REQUESTED ON EACH PROCESSOR=    19000000 WORDS.
 TIMLIM=      525600.00 MINUTES, OR     365.0 DAYS.
 PARALL= T  BALTYP=  DLB     KDIAG=    0  COREFL= F
 MXSEQ2=     300 MXSEQ3=     150  mem10=         0

          ----------------
          PROPERTIES INPUT
          ----------------

     MOMENTS            FIELD           POTENTIAL          DENSITY
 IEMOM =       1   IEFLD =       0   IEPOT =       0   IEDEN =       0
 WHERE =COMASS     WHERE =NUCLEI     WHERE =NUCLEI     WHERE =NUCLEI  
 OUTPUT=BOTH       OUTPUT=BOTH       OUTPUT=BOTH       OUTPUT=BOTH    
 IEMINT=       0   IEFINT=       0                     IEDINT=       0
                                                       MORB  =       0
          EXTRAPOLATION IN EFFECT
          DAMPING IN EFFECT
          DIIS IN EFFECT
 ORBITAL PRINTING OPTION: NPREO=     1   115     2     1

     -------------------------------
     INTEGRAL TRANSFORMATION OPTIONS
     -------------------------------
     NWORD  =            0
     CUTOFF = 1.0E-09     MPTRAN =       0
     DIRTRF =       T     AOINTS =DUP     

          ----------------------
          INTEGRAL INPUT OPTIONS
          ----------------------
 NOPK  =       1 NORDER=       0 SCHWRZ=       T

   --- ENCODED Z MATRIX ---
 COORD  TYPE   I   J   K   L   M   N
    1      1    2   1
    2      1    3   1
    3      2    3   1   2
    4      1    4   1
    5      2    4   1   2
    6      3    4   1   2   3
    7      1    5   1
    8      2    5   1   2
    9      3    5   1   2   3

 THE DETERMINANT OF THE G MATRIX IS 10**(   -12)

 THE DETERMINANT OF THE G MATRIX IS 10**(   -12)
 * * * WARNING * * *
 YOUR B MATRIX HAS A SMALL DETERMINANT.
 THIS SUGGESTS YOU MAY HAVE BADLY CHOSEN COORDINATES.


                     --------------------
                     INTERNAL COORDINATES
                     --------------------

                 - - ATOMS - -         COORDINATE      COORDINATE
 NO.   TYPE    I  J  K  L  M  N        (BOHR,RAD)       (ANG,DEG)
 ----------------------------------------------------------------
   1 STRETCH   2  1                     2.7474726       1.4539000
   2 STRETCH   3  1                     2.7474726       1.4539000
   3 BEND      3  1  2                  1.9106119     109.4700000
   4 STRETCH   4  1                     2.7474726       1.4539000
   5 BEND      4  1  2                  1.9106119     109.4700000
   6 TORSION   4  1  2  3               2.0943951     120.0000000
   7 STRETCH   5  1                     2.7474726       1.4539000
   8 BEND      5  1  2                  1.9106119     109.4700000
   9 TORSION   5  1  2  3              -2.0943951    -120.0000000

     ------------------------------------------
     THE POINT GROUP IS C1 , NAXIS= 1, ORDER= 1
     ------------------------------------------

     DIMENSIONS OF THE SYMMETRY SUBSPACES ARE
 A   =  115

 ..... DONE SETTING UP THE RUN .....
 CPU     0: STEP CPU TIME=     0.02 TOTAL CPU TIME=          0.0 (      0.0 MIN)
 TOTAL WALL CLOCK TIME=          0.1 SECONDS, CPU UTILIZATION IS    18.18%


          -----------------------------
          STATIONARY POINT LOCATION RUN
          -----------------------------

 OBTAINING INITIAL HESSIAN, HESS=GUESS   
 DIAGONAL GUESS HESSIAN IN INTERNAL COORDS IS
     1  0.3644     2  0.3644     3  0.2410     4  0.3644     5  0.2410
     6  0.2500     7  0.3644     8  0.2410     9  0.2500

          PARAMETERS CONTROLLING GEOMETRY SEARCH ARE
          METHOD =QA                  UPHESS =BFGS    
          NNEG   =         0          NFRZ   =         0
          NSTEP  =      1000          IFOLOW =         1
          HESS   =GUESS               RESTAR =         F
          IHREP  =         0          HSSEND =         F
          NPRT   =         0          NPUN   =         0
          OPTTOL = 1.000E-04          RMIN   = 1.500E-03
          RMAX   = 1.000E-01          RLIM   = 7.000E-02
          DXMAX  = 3.000E-01          PURIFY =         F
          MOVIE  =         F          TRUPD  =         T
          TRMAX  = 5.000E-01          TRMIN  = 5.000E-02
          ITBMAT =         5          STPT   =         F
          STSTEP = 1.000E-02          PROJCT=          F

 BEGINNING GEOMETRY SEARCH POINT NSERCH=   0 ...

 COORDINATES OF ALL ATOMS ARE (ANGS)
   ATOM   CHARGE       X              Y              Z
 ------------------------------------------------------------
 B           5.0   0.0000000000   0.0000000000  -0.0000191305
 F           9.0   0.0000000000   0.0000000000   1.4538808695
 F           9.0   1.3707603899   0.0000000000  -0.4846232612
 F           9.0  -0.6853801950  -1.1871133202  -0.4846232612
 F           9.0  -0.6853801950   1.1871133202  -0.4846232612


                     --------------------
                     INTERNAL COORDINATES
                     --------------------

                 - - ATOMS - -         COORDINATE      COORDINATE
 NO.   TYPE    I  J  K  L  M  N        (BOHR,RAD)       (ANG,DEG)
 ----------------------------------------------------------------
   1 STRETCH   2  1                     2.7474726       1.4539000
   2 STRETCH   3  1                     2.7474726       1.4539000
   3 BEND      3  1  2                  1.9106119     109.4700000
   4 STRETCH   4  1                     2.7474726       1.4539000
   5 BEND      4  1  2                  1.9106119     109.4700000
   6 TORSION   4  1  2  3               2.0943951     120.0000000
   7 STRETCH   5  1                     2.7474726       1.4539000
   8 BEND      5  1  2                  1.9106119     109.4700000
   9 TORSION   5  1  2  3              -2.0943951    -120.0000000

          ********************
          1 ELECTRON INTEGRALS
          ********************
 ...... END OF ONE-ELECTRON INTEGRALS ......
 CPU     0: STEP CPU TIME=     0.01 TOTAL CPU TIME=          0.0 (      0.0 MIN)
 TOTAL WALL CLOCK TIME=          0.1 SECONDS, CPU UTILIZATION IS    25.00%

          -------------
          GUESS OPTIONS
          -------------
          GUESS =HUCKEL            NORB  =       0          NORDER=       0
          MIX   =       F          PRTMO =       F          PUNMO =       F
          TOLZ  = 1.0E-08          TOLE  = 1.0E-05
          SYMDEN=       F          PURIFY=       F

 INITIAL GUESS ORBITALS GENERATED BY HUCKEL   ROUTINE.
 HUCKEL GUESS REQUIRES    102400 WORDS.

 SYMMETRIES FOR INITIAL GUESS ORBITALS FOLLOW.   BOTH SET(S).
    21 ORBITALS ARE OCCUPIED (    5 CORE ORBITALS).
     6=A        7=A        8=A        9=A       10=A       11=A       12=A   
    13=A       14=A       15=A       16=A       17=A       18=A       19=A   
    20=A       21=A       22=A       23=A       24=A       25=A       26=A   
    27=A       28=A       29=A       30=A       31=A   
 ...... END OF INITIAL ORBITAL SELECTION ......
 CPU     0: STEP CPU TIME=     0.02 TOTAL CPU TIME=          0.0 (      0.0 MIN)
 TOTAL WALL CLOCK TIME=          0.2 SECONDS, CPU UTILIZATION IS    25.00%

                    ----------------------
                    AO INTEGRAL TECHNOLOGY
                    ----------------------
     S,P,L SHELL ROTATED AXIS INTEGRALS, REPROGRAMMED BY
        KAZUYA ISHIMURA (IMS) AND JOSE SIERRA (SYNSTAR).
     S,P,D,L SHELL ROTATED AXIS INTEGRALS PROGRAMMED BY
        KAZUYA ISHIMURA (INSTITUTE FOR MOLECULAR SCIENCE).
     S,P,D,F,G SHELL TO TOTAL QUARTET ANGULAR MOMENTUM SUM 5,
        ERIC PROGRAM BY GRAHAM FLETCHER (ELORET AND NASA ADVANCED
        SUPERCOMPUTING DIVISION, AMES RESEARCH CENTER).
     S,P,D,F,G,L SHELL GENERAL RYS QUADRATURE PROGRAMMED BY
        MICHEL DUPUIS (PACIFIC NORTHWEST NATIONAL LABORATORY).

          --------------------
          2 ELECTRON INTEGRALS
          --------------------

 DIRECT SCF METHOD SKIPS INTEGRAL STORAGE ON DISK.
 DIRECT TRANSFORMATION SKIPS AO INTEGRAL STORAGE ON DISK.
  ...... END OF TWO-ELECTRON INTEGRALS .....
 CPU     0: STEP CPU TIME=     0.01 TOTAL CPU TIME=          0.1 (      0.0 MIN)
 TOTAL WALL CLOCK TIME=          0.2 SECONDS, CPU UTILIZATION IS    25.00%

          --------------------------
             R-B3LYP SCF CALCULATION
          --------------------------

     NUCLEAR ENERGY =       173.8372209615
     MAXIT =  200     NPUNCH=    2
     EXTRAP=T  DAMP=T  SHIFT=F  RSTRCT=F  DIIS=T  DEM=F  SOSCF=F
         DENSITY MATRIX CONVERGENCE THRESHOLD=  2.00E-05
     COARSE -> FINE DFT GRID SWITCH THRESHOLD=  3.00E-04 (SWITCH IN $DFT)
                   HF -> DFT SWITCH THRESHOLD=  5.00E-03 (SWOFF IN $DFT)
     MEMORY REQUIRED FOR RHF ITERS=    363033 WORDS.

 DIRECT SCF CALCULATION, SCHWRZ=T   FDIFF=T,  DIRTHR=  0.00E+00 NITDIR=10
 SCHWARZ INEQUALITY OVERHEAD:      6616 INTEGRALS, T=        0.00

 DFT CODE IS SWITCHING FROM THE FINE GRID NRAD= 96,  NLEB=  302
                      TO THE COARSE GRID NRAD0= 24, NLEB0=  110

     EXCHANGE FUNCTIONAL   =B88&HFX   
     CORRELATION FUNCTIONAL=LYP88&VWN5
     DFT THRESHOLD         =.276E-07
     GRID CHANGE THRESHOLD =.300E-03
 FOR AN EULER-MACLAURIN QUADRATURE USING  96 RADIAL POINTS:
 SMALLEST GAUSSIAN PRIMITIVE EXPONENT=        0.0315000000 OF TYPE -P-
 ON ATOM NUMBER   1 HAS RADIAL NORMALIZATION=  1.000000
  LARGEST GAUSSIAN PRIMITIVE EXPONENT=    11427.1000000000 OF TYPE -S-
 ON ATOM NUMBER   2 HAS RADIAL NORMALIZATION=  1.000000
 DFT IS SWITCHED OFF, PERFORMING PURE SCF UNTIL SWOFF THRESHOLD IS REACHED.

                                                                                                                   NONZERO     BLOCKS
 ITER EX DEM     TOTAL ENERGY        E CHANGE  DENSITY CHANGE    DIIS ERROR      VIR. SHIFT       DAMPING        INTEGRALS    SKIPPED
   1  0  0     -421.5934222327  -421.5934222327   0.251894032   2.349463397     0.000000000     1.000000000       15303518      20000
          * * *   INITIATING DIIS PROCEDURE   * * *
   2  1  0     -422.8092327385    -1.2158105059   0.074214968   0.114905317     0.000000000     1.000000000       15295399      21170
   3  2  0     -422.8486451058    -0.0394123673   0.027277144   0.032805395     0.000000000     1.000000000       15167363      24530
   4  3  0     -422.8522534506    -0.0036083447   0.011054258   0.016096790     0.000000000     1.000000000       15054350      26794
   5  4  0     -422.8529581041    -0.0007046535   0.001040217   0.001232648     0.000000000     1.000000000       14907241      28392
 CONVERGED TO SWOFF, SO DFT CALCULATION IS NOW SWITCHED ON.
          * * *   INITIATING DIIS PROCEDURE   * * *
   6  5  0     -424.4723275433    -1.6193694392   0.075967409   0.198116700       15290377      20388
   7  6  0     -424.5100711385    -0.0377435952   0.057793544   0.029361967       15190291      24113
   8  7  0     -424.5089578797     0.0011132588   0.022198516   0.036400565       15102697      26287
   9  8  0     -424.5127283452    -0.0037704655   0.004038592   0.003460587       15017238      27355
  10  9  0     -424.5127656709    -0.0000373257   0.000590494   0.001192936       14712798      30135
  11 10  0     -424.5127694289    -0.0000037580   0.000047825   0.000045058       14263006      32694
 DFT CODE IS SWITCHING BACK TO THE FINE GRID
          * * *   INITIATING DIIS PROCEDURE   * * *
  12 11  0     -424.5213441842    -0.0085747553   0.013772473   0.013101898       15294240      20349
  13 12  0     -424.5217803523    -0.0004361681   0.003619758   0.003539725       14996065      28073
  14 13  0     -424.5217619802     0.0000183721   0.001790858   0.004526210       14703236      30150
  15 14  0     -424.5218125240    -0.0000505438   0.000157684   0.000167341       14554338      31074
  16 15  0     -424.5218126057    -0.0000000817   0.000055102   0.000039759       13779266      34790
  17 16  0     -424.5218126129    -0.0000000072   0.000010055   0.000016825       13260122      36871
  18 17  0     -424.5218126137    -0.0000000008   0.000003076   0.000006671       12474299      40510

          -----------------
          DENSITY CONVERGED
          -----------------
     TIME TO FORM FOCK OPERATORS=       1.5 SECONDS (       0.1 SEC/ITER)
     FOCK TIME ON FIRST ITERATION=       0.0, LAST ITERATION=       0.1
     TIME TO SOLVE SCF EQUATIONS=       0.2 SECONDS (       0.0 SEC/ITER)

          ----------------------------
          DFT-D PARAMETERS AND RESULTS
          ----------------------------
 C6 COEFFICIENTS USED:
       5 C6 FOR ELEMENT   5
  Z=  5 CN= 0.000     C6(AA)=  107.18
  Z=  5 CN= 0.971     C6(AA)=   75.37
  Z=  5 CN= 1.944     C6(AA)=   53.11
  Z=  5 CN= 2.913     C6(AA)=   31.44
  Z=  5 CN= 4.586     C6(AA)=   28.03
       2 C6 FOR ELEMENT   9
  Z=  9 CN= 0.000     C6(AA)=    9.69
  Z=  9 CN= 0.998     C6(AA)=    7.13

 #          XYZ [AU]             R0(AA) [ANG.]  CN         C6(AA)     C8(AA)   C10(AA) [AU]
  1   0.00000   0.00000  -0.00004    5  0.665  3.964        28.2      1124.0     54865.9
  2   0.00000   0.00000   2.74744    9  0.436  1.024         7.2       122.7      2571.0
  3   2.59036   0.00000  -0.91581    9  0.436  1.024         7.2       122.7      2571.0
  4  -1.29518  -2.24332  -0.91581    9  0.436  1.024         7.2       122.7      2571.0
  5  -1.29518   2.24332  -0.91581    9  0.436  1.024         7.2       122.7      2571.0

     MOLECULAR C6(AA) [AU] =       246.93

           DFT-D V3(BJ)

 FUNCTIONAL: B3LYP   

 PARAMETERS
 S6       :    1.0000
 S8       :    1.9889
 A1       :    0.3981
 A2       :    4.4211
 K1-K3    :   16.0000    1.3333    4.0000

 EDISP /KCAL,AU:    -1.9334 -0.00308113

 E6    /KCAL :    -0.9131
 E8    /KCAL :    -1.0203
 % E8        : 52.77

 FINAL R-B3LYP ENERGY IS     -424.5248937461 AFTER  18 ITERATIONS
 DFT EXCHANGE + CORRELATION ENERGY =       -37.2127125613
 TOTAL ELECTRON NUMBER             =        42.0000386263
 GRIMME'S DISPERSION ENERGY                     =       -0.0030811324
 ENERGY WITHOUT GRIMME'S DISPERSION CORRECTION IS     -424.5218126137

          ------------
          EIGENVECTORS
          ------------

                      1          2          3          4          5
                  -24.4452   -24.4452   -24.4452   -24.4452    -6.6835
                     A          A          A          A          A   
    1  B  1  S   -0.000005  -0.000000  -0.000008  -0.000009   0.579524
    2  B  1  S    0.000008   0.000001   0.000013   0.000015   0.448486
    3  B  1  X   -0.000004   0.000000   0.000002   0.000000   0.000000
    4  B  1  Y    0.000000  -0.000005   0.000000   0.000000   0.000000
    5  B  1  Z    0.000001   0.000000   0.000003  -0.000003  -0.000000
    6  B  1  S   -0.000045  -0.000004  -0.000073  -0.000082   0.018707
    7  B  1  X   -0.000184   0.000004   0.000097   0.000015  -0.000000
    8  B  1  Y    0.000000  -0.000208   0.000010   0.000001  -0.000000
    9  B  1  Z    0.000058   0.000006   0.000132  -0.000150   0.000000
   10  B  1  S   -0.000573  -0.000050  -0.000941  -0.001039   0.060807
   11  B  1  X    0.000193  -0.000004  -0.000102  -0.000016   0.000001
   12  B  1  Y   -0.000000   0.000219  -0.000010  -0.000000  -0.000000
   13  B  1  Z   -0.000061  -0.000006  -0.000139   0.000157   0.000003
   14  B  1  S    0.000024   0.000002   0.000038   0.000043  -0.000472
   15  B  1  X   -0.000012   0.000000   0.000006   0.000001   0.000000
   16  B  1  Y    0.000000  -0.000013   0.000001   0.000000   0.000000
   17  B  1  Z    0.000004   0.000000   0.000008  -0.000009   0.000000
   18  B  1 XX   -0.000082  -0.000002  -0.000040  -0.000015  -0.011002
   19  B  1 YY    0.000011  -0.000004  -0.000089  -0.000022  -0.011002
   20  B  1 ZZ   -0.000005   0.000000   0.000007  -0.000100  -0.011002
   21  B  1 XY   -0.000000   0.000061  -0.000003  -0.000000   0.000000
   22  B  1 XZ    0.000038  -0.000001  -0.000020  -0.000003  -0.000000
   23  B  1 YZ   -0.000000   0.000043  -0.000002  -0.000000   0.000000
   24  F  2  S   -0.027183  -0.004974  -0.132659   0.531059  -0.000061
   25  F  2  S   -0.023246  -0.004254  -0.113441   0.454114  -0.000107
   26  F  2  X   -0.000001   0.000000   0.000001   0.000000   0.000000
   27  F  2  Y    0.000000  -0.000001   0.000000   0.000000   0.000000
   28  F  2  Z    0.000033   0.000006   0.000164  -0.000656  -0.000135
   29  F  2  S   -0.001011  -0.000184  -0.004916   0.019641   0.000170
   30  F  2  X   -0.000002   0.000000   0.000001   0.000000  -0.000000
   31  F  2  Y    0.000000  -0.000002   0.000000   0.000000  -0.000000
   32  F  2  Z   -0.000007  -0.000002  -0.000053   0.000259  -0.000420
   33  F  2  S   -0.000000  -0.000002  -0.000065   0.000421   0.001773
   34  F  2  X    0.000018  -0.000000  -0.000009  -0.000001   0.000000
   35  F  2  Y   -0.000000   0.000020  -0.000001  -0.000000   0.000000
   36  F  2  Z   -0.000013   0.000001   0.000036  -0.000404  -0.000887
   37  F  2  S    0.000289   0.000028   0.000590  -0.000265  -0.014515
   38  F  2  X    0.000020  -0.000000  -0.000010  -0.000002  -0.000000
   39  F  2  Y   -0.000000   0.000022  -0.000001  -0.000000   0.000000
   40  F  2  Z   -0.000117  -0.000012  -0.000256   0.000218   0.005281
   41  F  2 XX    0.000263   0.000048   0.001286  -0.005186  -0.000067
   42  F  2 YY    0.000259   0.000048   0.001288  -0.005186  -0.000067
   43  F  2 ZZ    0.000260   0.000048   0.001273  -0.005109   0.000051
   44  F  2 XY    0.000000  -0.000003   0.000000   0.000000  -0.000000
   45  F  2 XZ   -0.000005   0.000000   0.000003   0.000000  -0.000000
   46  F  2 YZ    0.000000  -0.000006   0.000000   0.000000  -0.000000
   47  F  3  S    0.542926   0.003728   0.061188   0.043111  -0.000061
   48  F  3  S    0.464263   0.003188   0.052321   0.036863  -0.000107
   49  F  3  X   -0.000633  -0.000004  -0.000071  -0.000051  -0.000127
   50  F  3  Y    0.000000  -0.000001   0.000000   0.000000   0.000000
   51  F  3  Z    0.000224   0.000002   0.000026   0.000017   0.000045
   52  F  3  S    0.020084   0.000138   0.002256   0.001587   0.000171
   53  F  3  X    0.000245   0.000002   0.000036   0.000028  -0.000396
   54  F  3  Y    0.000000  -0.000002   0.000000   0.000000  -0.000000
   55  F  3  Z   -0.000087  -0.000001  -0.000011  -0.000011   0.000140
   56  F  3  S    0.000414   0.000004   0.000076   0.000067   0.001774
   57  F  3  X   -0.000364  -0.000005  -0.000090  -0.000075  -0.000836
   58  F  3  Y   -0.000000   0.000020  -0.000001  -0.000000   0.000000
   59  F  3  Z    0.000129   0.000001   0.000016   0.000040   0.000296
   60  F  3  S   -0.000486   0.000016   0.000327   0.000396  -0.014513
   61  F  3  X    0.000288  -0.000005  -0.000111  -0.000130   0.004979
   62  F  3  Y   -0.000000   0.000022  -0.000001  -0.000000   0.000000
   63  F  3  Z   -0.000101   0.000001   0.000022   0.000061  -0.001761
   64  F  3 XX   -0.005230  -0.000036  -0.000590  -0.000421   0.000038
   65  F  3 YY   -0.005299  -0.000037  -0.000602  -0.000430  -0.000067
   66  F  3 ZZ   -0.005290  -0.000037  -0.000606  -0.000423  -0.000054
   67  F  3 XY    0.000000  -0.000006   0.000000   0.000000  -0.000000
   68  F  3 XZ   -0.000028  -0.000000  -0.000002  -0.000006  -0.000043
   69  F  3 YZ    0.000000  -0.000001   0.000000   0.000000  -0.000000
   70  F  4  S   -0.048861  -0.369317   0.391376   0.091807  -0.000061
   71  F  4  S   -0.041783  -0.315808   0.334669   0.078503  -0.000107
   72  F  4  X   -0.000029  -0.000215   0.000228   0.000054   0.000064
   73  F  4  Y   -0.000049  -0.000373   0.000395   0.000093   0.000110
   74  F  4  Z   -0.000020  -0.000152   0.000162   0.000037   0.000045
   75  F  4  S   -0.001813  -0.013665   0.014474   0.003388   0.000171
   76  F  4  X    0.000007   0.000082  -0.000090  -0.000025   0.000198
   77  F  4  Y    0.000015   0.000141  -0.000158  -0.000043   0.000343
   78  F  4  Z    0.000007   0.000058  -0.000063  -0.000019   0.000140
   79  F  4  S   -0.000016  -0.000267   0.000316   0.000102   0.001774
   80  F  4  X    0.000014  -0.000121   0.000140   0.000051   0.000418
   81  F  4  Y   -0.000006  -0.000188   0.000257   0.000092   0.000724
   82  F  4  Z   -0.000008  -0.000086   0.000093   0.000052   0.000296
   83  F  4  S    0.000317   0.000523  -0.000122   0.000330  -0.014512
   84  F  4  X    0.000079   0.000124  -0.000068   0.000047  -0.002489
   85  F  4  Y    0.000102   0.000238  -0.000101   0.000083  -0.004311
   86  F  4  Z    0.000036   0.000087  -0.000055   0.000050  -0.001760
   87  F  4 XX    0.000476   0.003588  -0.003811  -0.000901  -0.000041
   88  F  4 YY    0.000467   0.003571  -0.003782  -0.000893   0.000012
   89  F  4 ZZ    0.000470   0.003594  -0.003820  -0.000897  -0.000054
   90  F  4 XY    0.000001  -0.000024   0.000024   0.000007   0.000052
   91  F  4 XZ   -0.000002  -0.000009   0.000010   0.000004   0.000021
   92  F  4 YZ   -0.000002  -0.000017   0.000016   0.000008   0.000037
   93  F  5  S   -0.049899   0.404909   0.354779   0.089864  -0.000061
   94  F  5  S   -0.042671   0.346244   0.303375   0.076842  -0.000107
   95  F  5  X   -0.000030   0.000235   0.000207   0.000053   0.000064
   96  F  5  Y    0.000050  -0.000409  -0.000358  -0.000091  -0.000110
   97  F  5  Z   -0.000020   0.000166   0.000147   0.000036   0.000045
   98  F  5  S   -0.001851   0.014982   0.013119   0.003316   0.000171
   99  F  5  X    0.000007  -0.000090  -0.000082  -0.000024   0.000198
  100  F  5  Y   -0.000015   0.000155   0.000144   0.000042  -0.000343
  101  F  5  Z    0.000007  -0.000064  -0.000058  -0.000019   0.000140
  102  F  5  S   -0.000017   0.000296   0.000290   0.000101   0.001774
  103  F  5  X    0.000014   0.000134   0.000128   0.000051   0.000418
  104  F  5  Y    0.000007  -0.000212  -0.000238  -0.000091  -0.000724
  105  F  5  Z   -0.000008   0.000094   0.000084   0.000051   0.000296
  106  F  5  S    0.000318  -0.000528  -0.000073   0.000332  -0.014512
  107  F  5  X    0.000079  -0.000129  -0.000056   0.000047  -0.002489
  108  F  5  Y   -0.000103   0.000245   0.000078  -0.000085   0.004311
  109  F  5  Z    0.000036  -0.000092  -0.000046   0.000051  -0.001760
  110  F  5 XX    0.000486  -0.003935  -0.003455  -0.000882  -0.000041
  111  F  5 YY    0.000477  -0.003915  -0.003428  -0.000874   0.000012
  112  F  5 ZZ    0.000480  -0.003941  -0.003463  -0.000878  -0.000054
  113  F  5 XY   -0.000001  -0.000026  -0.000022  -0.000007  -0.000052
  114  F  5 XZ   -0.000002   0.000010   0.000009   0.000004   0.000021
  115  F  5 YZ    0.000002  -0.000018  -0.000015  -0.000007  -0.000037

                      6          7          8          9         10
                   -0.9927    -0.9459    -0.9459    -0.9459    -0.3605
                     A          A          A          A          A   
    1  B  1  S   -0.046123   0.000004  -0.000000  -0.000004  -0.082487
    2  B  1  S   -0.070218   0.000008   0.000001  -0.000003  -0.129909
    3  B  1  X    0.000003   0.050080  -0.000535   0.006344   0.000007
    4  B  1  Y    0.000000  -0.000589  -0.050480   0.000388   0.000000
    5  B  1  Z   -0.000003  -0.006338   0.000459   0.050082  -0.000004
    6  B  1  S    0.168709   0.000002   0.000014   0.000059   0.381780
    7  B  1  X    0.000009   0.062384  -0.000667   0.007898   0.000015
    8  B  1  Y   -0.000000  -0.000733  -0.062874   0.000484   0.000000
    9  B  1  Z   -0.000002  -0.007898   0.000571   0.062386  -0.000006
   10  B  1  S   -0.188814  -0.000319  -0.000241  -0.000778  -0.197192
   11  B  1  X    0.000054   0.052351  -0.000531   0.006605  -0.000009
   12  B  1  Y   -0.000024  -0.000597  -0.052760   0.000423  -0.000006
   13  B  1  Z    0.000056  -0.006564   0.000499   0.052341  -0.000008
   14  B  1  S    0.017769  -0.000009  -0.000004  -0.000010  -0.020121
   15  B  1  X    0.000001   0.003283  -0.000035   0.000415  -0.000000
   16  B  1  Y   -0.000001  -0.000038  -0.003309   0.000026   0.000000
   17  B  1  Z    0.000001  -0.000416   0.000030   0.003283   0.000000
   18  B  1 XX   -0.010882   0.024461  -0.000381  -0.013017  -0.004818
   19  B  1 YY   -0.010892  -0.020427   0.000097  -0.018698  -0.004825
   20  B  1 ZZ   -0.010885  -0.004009   0.000296   0.031753  -0.004825
   21  B  1 XY    0.000001   0.000304   0.026119  -0.000202   0.000000
   22  B  1 XZ   -0.000004  -0.018322   0.000195  -0.002319  -0.000001
   23  B  1 YZ    0.000001   0.000215   0.018469  -0.000143   0.000000
   24  F  2  S   -0.059845   0.013799  -0.000999  -0.108984   0.020635
   25  F  2  S   -0.097812   0.022593  -0.001635  -0.178438   0.034725
   26  F  2  X    0.000000   0.003231  -0.000035   0.000409   0.000003
   27  F  2  Y    0.000000  -0.000038  -0.003256   0.000025   0.000000
   28  F  2  Z   -0.018339   0.002911  -0.000211  -0.022987  -0.125154
   29  F  2  S    0.287239  -0.067137   0.004859   0.530255  -0.109527
   30  F  2  X    0.000001   0.005626  -0.000060   0.000713   0.000005
   31  F  2  Y   -0.000000  -0.000066  -0.005670   0.000044   0.000000
   32  F  2  Z   -0.031002   0.004752  -0.000343  -0.037514  -0.182052
   33  F  2  S    0.239251  -0.052454   0.003798   0.414290  -0.108543
   34  F  2  X   -0.000002   0.003574  -0.000038   0.000451   0.000001
   35  F  2  Y    0.000000  -0.000042  -0.003603   0.000028   0.000000
   36  F  2  Z   -0.029261   0.001975  -0.000146  -0.015618  -0.142322
   37  F  2  S    0.038194   0.011545  -0.000792  -0.090836   0.046960
   38  F  2  X   -0.000008  -0.001610   0.000013  -0.000200   0.000002
   39  F  2  Y    0.000004   0.000016   0.001621  -0.000015   0.000001
   40  F  2  Z   -0.011836  -0.005103   0.000354   0.040182  -0.040180
   41  F  2 XX   -0.005195   0.001102  -0.000073  -0.007778  -0.001469
   42  F  2 YY   -0.005195   0.000872  -0.000070  -0.007808  -0.001469
   43  F  2 ZZ    0.002113  -0.000049   0.000003   0.000383   0.009611
   44  F  2 XY    0.000000   0.000002   0.000134  -0.000001  -0.000000
   45  F  2 XZ   -0.000000  -0.001291   0.000014  -0.000164  -0.000000
   46  F  2 YZ    0.000000   0.000015   0.001302  -0.000010  -0.000000
   47  F  3  S   -0.059866  -0.107336   0.001431   0.023308   0.020637
   48  F  3  S   -0.097847  -0.175741   0.002343   0.038162   0.034728
   49  F  3  X   -0.017295  -0.021114   0.000290   0.005695  -0.118023
   50  F  3  Y    0.000000  -0.000038  -0.003256   0.000025   0.000000
   51  F  3  Z    0.006114   0.008197  -0.000085   0.001362   0.041727
   52  F  3  S    0.287344   0.522243  -0.006962  -0.113406  -0.109538
   53  F  3  X   -0.029235  -0.034432   0.000474   0.009412  -0.171676
   54  F  3  Y   -0.000000  -0.000066  -0.005670   0.000044   0.000000
   55  F  3  Z    0.010335   0.013449  -0.000137   0.002550   0.060694
   56  F  3  S    0.239328   0.408017  -0.005437  -0.088598  -0.108566
   57  F  3  X   -0.027593  -0.014240   0.000197   0.004308  -0.134210
   58  F  3  Y    0.000000  -0.000042  -0.003606   0.000028   0.000000
   59  F  3  Z    0.009756   0.005844  -0.000050   0.002215   0.047453
   60  F  3  S    0.038219  -0.089562   0.001236   0.019694   0.046980
   61  F  3  X   -0.011170   0.037226  -0.000516  -0.008719  -0.037896
   62  F  3  Y    0.000004   0.000016   0.001623  -0.000015   0.000001
   63  F  3  Z    0.003937  -0.013533   0.000170   0.001401   0.013399
   64  F  3 XX    0.001301  -0.000666   0.000003  -0.000567   0.008381
   65  F  3 YY   -0.005198  -0.007702   0.000102   0.001553  -0.001469
   66  F  3 ZZ   -0.004385  -0.006609   0.000094   0.002265  -0.000238
   67  F  3 XY    0.000000   0.000015   0.001272  -0.000010  -0.000000
   68  F  3 XZ   -0.002652  -0.003128   0.000034  -0.000314  -0.004021
   69  F  3 YZ    0.000000  -0.000004  -0.000307   0.000002   0.000000
   70  F  4  S   -0.059854   0.045734  -0.089902   0.043519   0.020636
   71  F  4  S   -0.097827   0.074880  -0.147198   0.071253   0.034725
   72  F  4  X    0.008646  -0.001956   0.010161  -0.004526   0.059005
   73  F  4  Y    0.014975  -0.009021   0.014402  -0.008522   0.102195
   74  F  4  Z    0.006113  -0.004076   0.007238  -0.000258   0.041716
   75  F  4  S    0.287282  -0.222517   0.437418  -0.211739  -0.109530
   76  F  4  X    0.014616  -0.002910   0.016716  -0.007409   0.085830
   77  F  4  Y    0.025315  -0.014849   0.023386  -0.014022   0.148654
   78  F  4  Z    0.010334  -0.006746   0.011913  -0.000116   0.060681
   79  F  4  S    0.239286  -0.173859   0.341764  -0.165437  -0.108541
   80  F  4  X    0.013798  -0.000218   0.007426  -0.003154   0.067100
   81  F  4  Y    0.023899  -0.006613   0.009325  -0.006221   0.116215
   82  F  4  Z    0.009754  -0.003136   0.005310   0.001025   0.047439
   83  F  4  S    0.038273   0.038322  -0.075024   0.036563   0.046942
   84  F  4  X    0.005584   0.006692  -0.016253   0.007717   0.018938
   85  F  4  Y    0.009692   0.014399  -0.026552   0.013697   0.032804
   86  F  4  Z    0.003946   0.006067  -0.011519   0.003989   0.013391
   87  F  4 XX   -0.003574   0.003408  -0.004543   0.002250   0.000994
   88  F  4 YY   -0.000324   0.000313  -0.002567   0.000334   0.005918
   89  F  4 ZZ   -0.004386   0.002664  -0.005441   0.003492  -0.000238
   90  F  4 XY    0.003249  -0.000894   0.003223  -0.001649   0.004925
   91  F  4 XZ    0.001327  -0.000529   0.001501  -0.000123   0.002010
   92  F  4 YZ    0.002297  -0.001447   0.002295  -0.000276   0.003482
   93  F  5  S   -0.059854   0.047825   0.089470   0.042140   0.020636
   94  F  5  S   -0.097827   0.078305   0.146489   0.068996   0.034725
   95  F  5  X    0.008646  -0.002193  -0.010181  -0.004369   0.059005
   96  F  5  Y   -0.014975   0.009356   0.014317   0.008301  -0.102195
   97  F  5  Z    0.006113  -0.004243  -0.007144  -0.000148   0.041717
   98  F  5  S    0.287282  -0.232694  -0.435313  -0.205030  -0.109530
   99  F  5  X    0.014616  -0.003300  -0.016756  -0.007151   0.085830
  100  F  5  Y   -0.025315   0.015393   0.023248   0.013664  -0.148655
  101  F  5  Z    0.010334  -0.007022  -0.011753   0.000066   0.060682
  102  F  5  S    0.239285  -0.181810  -0.340122  -0.160195  -0.108542
  103  F  5  X    0.013799  -0.000393  -0.007463  -0.003040   0.067100
  104  F  5  Y   -0.023901   0.006832   0.009256   0.006079  -0.116216
  105  F  5  Z    0.009755  -0.003259  -0.005216   0.001105   0.047439
  106  F  5  S    0.038312   0.040039   0.074829   0.035383   0.046952
  107  F  5  X    0.005593   0.007064   0.016232   0.007461   0.018941
  108  F  5  Y   -0.009699  -0.015011  -0.026469  -0.013283  -0.032806
  109  F  5  Z    0.003952   0.006330   0.011450   0.003808   0.013392
  110  F  5 XX   -0.003573   0.003513   0.004497   0.002181   0.000994
  111  F  5 YY   -0.000324   0.000373   0.002564   0.000294   0.005918
  112  F  5 ZZ   -0.004386   0.002791   0.005430   0.003408  -0.000238
  113  F  5 XY   -0.003249   0.000969   0.003227   0.001599  -0.004925
  114  F  5 XZ    0.001327  -0.000564  -0.001490  -0.000100   0.002010
  115  F  5 YZ   -0.002297   0.001500   0.002265   0.000241  -0.003482

                     11         12         13         14         15
                   -0.2979    -0.2979    -0.2979    -0.2169    -0.2169
                     A          A          A          A          A   
    1  B  1  S   -0.000005   0.000000   0.000001   0.000000   0.000001
    2  B  1  S   -0.000009   0.000000   0.000002  -0.000000   0.000000
    3  B  1  X   -0.133242   0.000489  -0.030420  -0.000000   0.000001
    4  B  1  Y    0.000779   0.136664  -0.001216  -0.000017   0.000000
    5  B  1  Z    0.030414  -0.001359  -0.133236   0.000000  -0.000009
    6  B  1  S    0.000036  -0.000003  -0.000006  -0.000000  -0.000030
    7  B  1  X   -0.198953   0.000730  -0.045422  -0.000000   0.000009
    8  B  1  Y    0.001163   0.204067  -0.001816  -0.000021   0.000000
    9  B  1  Z    0.045406  -0.002030  -0.198951   0.000000   0.000000
   10  B  1  S   -0.000166   0.000043  -0.000010   0.000001   0.000376
   11  B  1  X   -0.063343   0.000228  -0.014434   0.000001  -0.000052
   12  B  1  Y    0.000359   0.064944  -0.000590   0.000047  -0.000014
   13  B  1  Z    0.014479  -0.000650  -0.063384  -0.000002  -0.000003
   14  B  1  S   -0.000001   0.000000   0.000001   0.000000   0.000004
   15  B  1  X   -0.001172   0.000005  -0.000267   0.000000  -0.000005
   16  B  1  Y    0.000007   0.001204  -0.000011   0.000011  -0.000001
   17  B  1  Z    0.000270  -0.000012  -0.001177  -0.000000   0.000003
   18  B  1 XX   -0.023942   0.000224   0.009867   0.000002   0.029041
   19  B  1 YY    0.017290   0.000073   0.019287  -0.000002  -0.029044
   20  B  1 ZZ    0.006653  -0.000298  -0.029153   0.000000  -0.000011
   21  B  1 XY   -0.000139  -0.024411   0.000218   0.033544  -0.000002
   22  B  1 XZ    0.016829  -0.000062   0.003838   0.000003   0.047412
   23  B  1 YZ   -0.000098  -0.017267   0.000154  -0.047404   0.000004
   24  F  2  S    0.004332  -0.000194  -0.018970   0.000000  -0.000001
   25  F  2  S    0.007354  -0.000329  -0.032209   0.000000  -0.000001
   26  F  2  X   -0.090343   0.000331  -0.020628   0.000011   0.153411
   27  F  2  Y    0.000528   0.092666  -0.000825  -0.153387   0.000011
   28  F  2  Z   -0.044263   0.001978   0.193872  -0.000000   0.000027
   29  F  2  S   -0.022427   0.001002   0.098214  -0.000000   0.000005
   30  F  2  X   -0.131192   0.000481  -0.029956   0.000015   0.220434
   31  F  2  Y    0.000767   0.134563  -0.001198  -0.220399   0.000015
   32  F  2  Z   -0.064072   0.002863   0.280637  -0.000001   0.000036
   33  F  2  S   -0.032274   0.001442   0.141387  -0.000000  -0.000000
   34  F  2  X   -0.107310   0.000394  -0.024497   0.000013   0.186515
   35  F  2  Y    0.000628   0.110074  -0.000980  -0.186492   0.000013
   36  F  2  Z   -0.044251   0.001977   0.193780  -0.000001   0.000041
   37  F  2  S   -0.014509   0.000642   0.063713   0.000001  -0.000100
   38  F  2  X   -0.011801   0.000044  -0.002702   0.000003   0.046602
   39  F  2  Y    0.000071   0.012110  -0.000106  -0.046598   0.000006
   40  F  2  Z   -0.007692   0.000346   0.033639  -0.000000   0.000040
   41  F  2 XX   -0.000251   0.000012   0.001236   0.000000   0.000677
   42  F  2 YY   -0.000312   0.000013   0.001222  -0.000000  -0.000675
   43  F  2 ZZ    0.002650  -0.000118  -0.011609   0.000000  -0.000001
   44  F  2 XY    0.000000   0.000036  -0.000000   0.000781  -0.000000
   45  F  2 XZ    0.005912  -0.000022   0.001350  -0.000000  -0.004624
   46  F  2 YZ   -0.000035  -0.006064   0.000054   0.004624  -0.000000
   47  F  3  S   -0.019328   0.000130   0.002239  -0.000000   0.000000
   48  F  3  S   -0.032816   0.000221   0.003801  -0.000000   0.000001
   49  F  3  X    0.182690  -0.001506  -0.052265   0.000004   0.051138
   50  F  3  Y    0.000528   0.092691  -0.000825   0.153487  -0.000011
   51  F  3  Z   -0.075913  -0.000272  -0.079181   0.000010   0.144720
   52  F  3  S    0.100068  -0.000673  -0.011592   0.000000   0.000001
   53  F  3  X    0.264432  -0.002182  -0.075798   0.000006   0.073480
   54  F  3  Y    0.000767   0.134596  -0.001198   0.220537  -0.000015
   55  F  3  Z   -0.109929  -0.000397  -0.115015   0.000014   0.207941
   56  F  3  S    0.144048  -0.000970  -0.016678   0.000000  -0.000028
   57  F  3  X    0.181943  -0.001553  -0.058016   0.000005   0.062182
   58  F  3  Y    0.000628   0.110108  -0.000980   0.186619  -0.000013
   59  F  3  Z   -0.077781  -0.000407  -0.095493   0.000012   0.175959
   60  F  3  S    0.064913  -0.000445  -0.007575  -0.000002  -0.000016
   61  F  3  X    0.031842  -0.000248  -0.007734   0.000002   0.015539
   62  F  3  Y    0.000071   0.012117  -0.000106   0.046609  -0.000001
   63  F  3  Z   -0.012741  -0.000017  -0.010024   0.000003   0.043955
   64  F  3 XX   -0.009994   0.000097   0.004484  -0.000000  -0.002441
   65  F  3 YY    0.001250  -0.000009  -0.000177  -0.000000  -0.000675
   66  F  3 ZZ   -0.000577  -0.000025  -0.003228   0.000000   0.003119
   67  F  3 XY   -0.000033  -0.005705   0.000051  -0.004621   0.000000
   68  F  3 XZ    0.005292   0.000007   0.004147  -0.000000  -0.003353
   69  F  3 YZ    0.000012   0.002056  -0.000018   0.000807  -0.000000
   70  F  4  S    0.007410  -0.015855   0.008506   0.000001   0.000000
   71  F  4  S    0.012581  -0.026920   0.014442   0.000001   0.000000
   72  F  4  X   -0.038021  -0.111661   0.039456  -0.088594  -0.102306
   73  F  4  Y    0.091175  -0.101298   0.103235   0.000051   0.088595
   74  F  4  Z    0.057635  -0.080104  -0.047880   0.125316  -0.072340
   75  F  4  S   -0.038365   0.082090  -0.044038  -0.000003  -0.000001
   76  F  4  X   -0.055374  -0.161795   0.057106  -0.127298  -0.147000
   77  F  4  Y    0.132113  -0.146489   0.149583   0.000073   0.127301
   78  F  4  Z    0.083575  -0.116074  -0.069660   0.180060  -0.103943
   79  F  4  S   -0.055226   0.118166  -0.063394  -0.000009   0.000007
   80  F  4  X   -0.051885  -0.118252   0.039152  -0.107719  -0.124390
   81  F  4  Y    0.096661  -0.095417   0.109265   0.000057   0.107717
   82  F  4  Z    0.063711  -0.084983  -0.062334   0.152368  -0.087954
   83  F  4  S   -0.024825   0.053192  -0.028550   0.000025  -0.000138
   84  F  4  X   -0.003425  -0.017873   0.006912  -0.026898  -0.031092
   85  F  4  Y    0.014580  -0.018917   0.016534   0.000012   0.026865
   86  F  4  Z    0.008613  -0.012787  -0.005004   0.038059  -0.021991
   87  F  4 XX   -0.003288  -0.003244   0.000628  -0.002701  -0.002443
   88  F  4 YY    0.005572  -0.003262   0.006264   0.000002   0.004001
   89  F  4 ZZ    0.001290  -0.001142  -0.002791   0.002700  -0.001561
   90  F  4 XY   -0.000806  -0.005689   0.003488  -0.001919  -0.001559
   91  F  4 XZ    0.000278  -0.003537  -0.001370   0.001104  -0.001442
   92  F  4 YZ    0.003964  -0.004084  -0.001598   0.002716  -0.001102
   93  F  5  S    0.007591   0.015919   0.008223  -0.000001   0.000000
   94  F  5  S    0.012889   0.027028   0.013961  -0.000001   0.000000
   95  F  5  X   -0.036741   0.112772   0.037459   0.088581  -0.102319
   96  F  5  Y   -0.092334  -0.102073  -0.101425   0.000039  -0.088596
   97  F  5  Z    0.058539   0.078578  -0.049292  -0.125327  -0.072323
   98  F  5  S   -0.039303  -0.082417  -0.042574   0.000003  -0.000001
   99  F  5  X   -0.053521   0.163407   0.054212   0.127278  -0.147018
  100  F  5  Y   -0.133790  -0.147612  -0.146966   0.000055  -0.127302
  101  F  5  Z    0.084886   0.113856  -0.071706  -0.180075  -0.103918
  102  F  5  S   -0.056577  -0.118639  -0.061287   0.000009   0.000006
  103  F  5  X   -0.050529   0.119513   0.037036   0.107703  -0.124404
  104  F  5  Y   -0.097755  -0.096235  -0.107560   0.000042  -0.107719
  105  F  5  Z    0.064670   0.083128  -0.063830  -0.152381  -0.087933
  106  F  5  S   -0.025414  -0.053433  -0.027581  -0.000026  -0.000116
  107  F  5  X   -0.003216   0.018027   0.006597   0.026893  -0.031090
  108  F  5  Y   -0.014800  -0.019031  -0.016201   0.000009  -0.026869
  109  F  5  Z    0.008761   0.012594  -0.005227  -0.038061  -0.021982
  110  F  5 XX   -0.003251   0.003292   0.000570   0.002701  -0.002443
  111  F  5 YY    0.005610   0.003310   0.006206  -0.000001   0.004001
  112  F  5 ZZ    0.001302   0.001078  -0.002810  -0.002700  -0.001560
  113  F  5 XY    0.000741  -0.005759  -0.003386  -0.001919   0.001560
  114  F  5 XZ    0.000319   0.003509  -0.001433  -0.001104  -0.001442
  115  F  5 YZ   -0.004010  -0.004010   0.001670   0.002716   0.001102

                     16         17         18         19         20
                   -0.1989    -0.1989    -0.1989    -0.1688    -0.1688
                     A          A          A          A          A   
    1  B  1  S    0.000002  -0.000000   0.000001   0.000000  -0.000001
    2  B  1  S    0.000004   0.000001  -0.000002  -0.000000  -0.000002
    3  B  1  X    0.023486   0.000109  -0.023681  -0.000000  -0.000001
    4  B  1  Y   -0.000021  -0.033359  -0.000174   0.000002   0.000000
    5  B  1  Z   -0.023691   0.000137  -0.023496   0.000000   0.000002
    6  B  1  S   -0.000011   0.000011  -0.000060  -0.000004  -0.000002
    7  B  1  X    0.034650   0.000161  -0.034934   0.000000  -0.000007
    8  B  1  Y   -0.000031  -0.049204  -0.000257  -0.000002   0.000000
    9  B  1  Z   -0.034952   0.000202  -0.034653   0.000000   0.000005
   10  B  1  S   -0.000060  -0.000195   0.001049   0.000076   0.000220
   11  B  1  X    0.003690   0.000042  -0.003711  -0.000012  -0.000051
   12  B  1  Y   -0.000003  -0.005271  -0.000030   0.000040   0.000001
   13  B  1  Z   -0.003598   0.000039  -0.003685  -0.000006   0.000023
   14  B  1  S   -0.000004  -0.000004   0.000020   0.000002  -0.000001
   15  B  1  X   -0.022038  -0.000102   0.022219  -0.000000   0.000003
   16  B  1  Y    0.000019   0.031294   0.000164  -0.000011   0.000000
   17  B  1  Z    0.022222  -0.000129   0.022041  -0.000000  -0.000004
   18  B  1 XX    0.061490   0.000021  -0.010825  -0.000001  -0.000020
   19  B  1 YY   -0.010303  -0.000313   0.061560  -0.000001   0.000009
   20  B  1 ZZ   -0.051184   0.000300  -0.050776  -0.000001  -0.000000
   21  B  1 XY    0.000037   0.058855   0.000308  -0.000005   0.000000
   22  B  1 XZ   -0.029317  -0.000137   0.029552   0.000000   0.000017
   23  B  1 YZ    0.000026   0.041635   0.000218  -0.000009  -0.000000
   24  F  2  S    0.000187  -0.000001   0.000185  -0.000000  -0.000001
   25  F  2  S    0.000229  -0.000001   0.000227   0.000000  -0.000001
   26  F  2  X   -0.110656  -0.000514   0.111557   0.000601   0.201311
   27  F  2  Y    0.000097   0.157173   0.000821  -0.089470  -0.002459
   28  F  2  Z    0.113369  -0.000658   0.112438  -0.000000  -0.000013
   29  F  2  S   -0.002652   0.000015  -0.002629   0.000000   0.000002
   30  F  2  X   -0.157567  -0.000732   0.158850   0.000856   0.286839
   31  F  2  Y    0.000138   0.223802   0.001169  -0.127480  -0.003503
   32  F  2  Z    0.161174  -0.000935   0.159846  -0.000000  -0.000020
   33  F  2  S    0.014372  -0.000082   0.014246  -0.000000   0.000029
   34  F  2  X   -0.140543  -0.000653   0.141689   0.000786   0.263223
   35  F  2  Y    0.000123   0.199625   0.001043  -0.116986  -0.003215
   36  F  2  Z    0.124366  -0.000723   0.123363   0.000001  -0.000013
   37  F  2  S    0.019051  -0.000078   0.018706  -0.000014  -0.000129
   38  F  2  X   -0.027817  -0.000133   0.028039   0.000161   0.053494
   39  F  2  Y    0.000024   0.039518   0.000206  -0.023780  -0.000654
   40  F  2  Z    0.019113  -0.000123   0.019022   0.000005   0.000052
   41  F  2 XX    0.001757  -0.000007   0.001185  -0.000001  -0.000471
   42  F  2 YY    0.001199  -0.000010   0.001748   0.000001   0.000469
   43  F  2 ZZ   -0.004016   0.000023  -0.003982   0.000000   0.000000
   44  F  2 XY    0.000000   0.000457   0.000002  -0.000241  -0.000007
   45  F  2 XZ    0.002764   0.000013  -0.002787  -0.000015  -0.004859
   46  F  2 YZ   -0.000002  -0.003926  -0.000021   0.002160   0.000059
   47  F  3  S   -0.000238  -0.000000   0.000115   0.000000   0.000001
   48  F  3  S   -0.000293  -0.000001   0.000142   0.000000   0.000002
   49  F  3  X   -0.112817  -0.000518   0.112605  -0.000200  -0.067041
   50  F  3  Y    0.000098   0.157148   0.000821   0.199785  -0.000962
   51  F  3  Z    0.112256  -0.000646   0.110332  -0.000566  -0.189731
   52  F  3  S    0.003375   0.000006  -0.001629  -0.000000  -0.000011
   53  F  3  X   -0.160338  -0.000737   0.160192  -0.000285  -0.095524
   54  F  3  Y    0.000140   0.223765   0.001169   0.284662  -0.001370
   55  F  3  Z    0.159737  -0.000920   0.157156  -0.000807  -0.270339
   56  F  3  S   -0.018237  -0.000034   0.008784  -0.000000   0.000024
   57  F  3  X   -0.119819  -0.000615   0.131703  -0.000261  -0.087673
   58  F  3  Y    0.000125   0.199603   0.001043   0.261225  -0.001258
   59  F  3  Z    0.134275  -0.000836   0.144136  -0.000741  -0.248073
   60  F  3  S   -0.024208  -0.000014   0.011458  -0.000011  -0.000028
   61  F  3  X   -0.017132  -0.000121   0.022961  -0.000049  -0.017791
   62  F  3  Y    0.000025   0.039508   0.000206   0.053087  -0.000256
   63  F  3  Z    0.024233  -0.000169   0.029624  -0.000151  -0.050416
   64  F  3 XX    0.003373   0.000019  -0.004048   0.000008   0.002694
   65  F  3 YY   -0.001701  -0.000006   0.001263  -0.000001  -0.000472
   66  F  3 ZZ   -0.000326  -0.000011   0.002138  -0.000007  -0.002226
   67  F  3 XY   -0.000002  -0.003547  -0.000019  -0.004366   0.000021
   68  F  3 XZ   -0.003916   0.000011  -0.001660   0.000012   0.003949
   69  F  3 YZ    0.000001   0.001741   0.000009   0.002116  -0.000010
   70  F  4  S    0.000025  -0.000214  -0.000152   0.000001  -0.000001
   71  F  4  S    0.000031  -0.000264  -0.000186   0.000001  -0.000001
   72  F  4  X   -0.110781   0.000491   0.112270   0.147022  -0.068597
   73  F  4  Y   -0.000103   0.158814   0.001992  -0.055217   0.001720
   74  F  4  Z    0.111538  -0.000032   0.111133  -0.072731   0.092841
   75  F  4  S   -0.000354   0.003041   0.002147  -0.000004   0.000004
   76  F  4  X   -0.157727   0.000561   0.159769   0.209483  -0.097739
   77  F  4  Y   -0.000119   0.225899   0.002671  -0.078675   0.002451
   78  F  4  Z    0.158831  -0.000144   0.158176  -0.103628   0.132282
   79  F  4  S    0.001913  -0.016455  -0.011599  -0.000003  -0.000005
   80  F  4  X   -0.139472  -0.009975   0.135114   0.192243  -0.089698
   81  F  4  Y    0.002009   0.183356  -0.010426  -0.072200   0.002245
   82  F  4  Z    0.142543  -0.007533   0.135867  -0.095102   0.121396
   83  F  4  S    0.002608  -0.021891  -0.015750   0.000004  -0.000049
   84  F  4  X   -0.027241  -0.004957   0.024585   0.039060  -0.018218
   85  F  4  Y    0.001019   0.031130  -0.005796  -0.014667   0.000437
   86  F  4  Z    0.028442  -0.003607   0.025363  -0.019318   0.024660
   87  F  4 XX   -0.001784  -0.001560   0.001287   0.002664  -0.001145
   88  F  4 YY    0.000124   0.004288  -0.000700  -0.001810   0.000057
   89  F  4 ZZ    0.001520  -0.001518   0.000270  -0.000852   0.001089
   90  F  4 XY   -0.002422   0.002283   0.002358   0.002300  -0.001433
   91  F  4 XZ    0.000206  -0.000083   0.002598   0.000663   0.000414
   92  F  4 YZ    0.002478   0.001606   0.002368  -0.002131   0.001992
   93  F  5  S    0.000025   0.000216  -0.000149  -0.000001  -0.000001
   94  F  5  S    0.000031   0.000266  -0.000184  -0.000001  -0.000001
   95  F  5  X   -0.110783  -0.001526   0.112260  -0.147422  -0.065511
   96  F  5  Y    0.000300   0.158825  -0.000332  -0.055217   0.001700
   97  F  5  Z    0.111537  -0.001268   0.111127   0.073296   0.096855
   98  F  5  S   -0.000357  -0.003063   0.002115   0.000003   0.000004
   99  F  5  X   -0.157728  -0.002035   0.159756  -0.210052  -0.093342
  100  F  5  Y    0.000399   0.225914  -0.000309  -0.078675   0.002422
  101  F  5  Z    0.158830  -0.001706   0.158168   0.104434   0.138001
  102  F  5  S    0.001934   0.016571  -0.011427   0.000004  -0.000005
  103  F  5  X   -0.139461   0.008738   0.135212  -0.192767  -0.085663
  104  F  5  Y   -0.001781   0.183234   0.012342  -0.072198   0.002228
  105  F  5  Z    0.142551   0.005937   0.135938   0.095841   0.126644
  106  F  5  S    0.002635   0.022186  -0.015516  -0.000059  -0.000051
  107  F  5  X   -0.027236   0.004752   0.024637  -0.039173  -0.017399
  108  F  5  Y   -0.000980   0.031025   0.006119  -0.014649   0.000472
  109  F  5  Z    0.028447   0.003319   0.025400   0.019462   0.025726
  110  F  5 XX   -0.001782   0.001549   0.001303  -0.002670  -0.001080
  111  F  5 YY    0.000119  -0.004281  -0.000745   0.001810  -0.000055
  112  F  5 ZZ    0.001522   0.001513   0.000286   0.000859   0.001136
  113  F  5 XY    0.002425   0.002304  -0.002334   0.002308   0.001418
  114  F  5 XZ    0.000206   0.000055   0.002599  -0.000660   0.000496
  115  F  5 YZ   -0.002476   0.001634  -0.002351  -0.002143  -0.002041

                     21         22         23         24         25
                   -0.1688     0.1641     0.1813     0.1813     0.1813
                     A          A          A          A          A   
    1  B  1  S    0.000000  -0.012764   0.000005   0.000000   0.000000
    2  B  1  S   -0.000000  -0.019846   0.000001  -0.000000  -0.000009
    3  B  1  X   -0.000000   0.000006   0.009076   0.000042  -0.001867
    4  B  1  Y   -0.000002  -0.000000  -0.000039   0.009267   0.000019
    5  B  1  Z   -0.000000   0.000003   0.001865  -0.000011   0.009074
    6  B  1  S   -0.000008  -0.034096  -0.000113  -0.000012  -0.000165
    7  B  1  X    0.000000   0.000016   0.036718   0.000168  -0.007564
    8  B  1  Y   -0.000001  -0.000005  -0.000156   0.037492   0.000077
    9  B  1  Z    0.000000   0.000021   0.007566  -0.000045   0.036729
   10  B  1  S    0.000146   2.557000   0.001318   0.000212   0.003055
   11  B  1  X   -0.000020   0.000355   0.056158   0.000222  -0.011579
   12  B  1  Y   -0.000092  -0.000049  -0.000223   0.057514   0.000126
   13  B  1  Z   -0.000015   0.000754   0.011504  -0.000092   0.056038
   14  B  1  S    0.000003   1.941803  -0.000621  -0.000029  -0.000049
   15  B  1  X   -0.000000   0.000491   1.466150   0.006744  -0.301700
   16  B  1  Y    0.000000   0.000028  -0.006253   1.496856   0.003072
   17  B  1  Z   -0.000000   0.000203   0.301716  -0.001749   1.466132
   18  B  1 XX   -0.000002  -0.008429   0.004929   0.000029  -0.005341
   19  B  1 YY   -0.000001  -0.008453  -0.006679  -0.000023  -0.002950
   20  B  1 ZZ   -0.000003  -0.008398   0.001660  -0.000013   0.008156
   21  B  1 XY    0.000003   0.000002   0.000028  -0.006842  -0.000014
   22  B  1 XZ    0.000001  -0.000011  -0.004735  -0.000021   0.000977
   23  B  1 YZ    0.000009   0.000002   0.000020  -0.004839  -0.000010
   24  F  2  S   -0.000000   0.012636   0.001850  -0.000011   0.009015
   25  F  2  S    0.000000   0.020452   0.002965  -0.000018   0.014448
   26  F  2  X    0.003043  -0.000008  -0.028438  -0.000131   0.005857
   27  F  2  Y    0.180325  -0.000000   0.000121  -0.029036  -0.000060
   28  F  2  Z    0.000000   0.000820  -0.004507   0.000026  -0.021906
   29  F  2  S    0.000000  -0.081246  -0.012162   0.000072  -0.059246
   30  F  2  X    0.004336  -0.000017  -0.050728  -0.000233   0.010444
   31  F  2  Y    0.256934  -0.000001   0.000216  -0.051792  -0.000106
   32  F  2  Z   -0.000000  -0.000441  -0.007567   0.000043  -0.036758
   33  F  2  S   -0.000000  -0.015287  -0.000922   0.000005  -0.004697
   34  F  2  X    0.003979   0.000010   0.001480   0.000007  -0.000290
   35  F  2  Y    0.235785   0.000001  -0.000006   0.001502   0.000003
   36  F  2  Z    0.000001   0.026274   0.000808  -0.000003   0.003857
   37  F  2  S   -0.000024  -1.094290  -0.078175   0.000429  -0.379411
   38  F  2  X    0.000812  -0.000174  -0.219822  -0.001006   0.045197
   39  F  2  Y    0.047928   0.000001   0.000935  -0.224399  -0.000462
   40  F  2  Z    0.000009   0.278956  -0.035701   0.000219  -0.173754
   41  F  2 XX   -0.000007  -0.002359  -0.000553   0.000003  -0.002499
   42  F  2 YY    0.000007  -0.002359  -0.000479   0.000003  -0.002514
   43  F  2 ZZ    0.000000  -0.003464  -0.000508   0.000003  -0.002470
   44  F  2 XY    0.000486  -0.000000  -0.000000   0.000044   0.000000
   45  F  2 XZ   -0.000073  -0.000000   0.000716   0.000003  -0.000147
   46  F  2 YZ   -0.004353   0.000000  -0.000003   0.000731   0.000001
   47  F  3  S    0.000000   0.012639   0.007878   0.000042  -0.004755
   48  F  3  S    0.000000   0.020458   0.012627   0.000068  -0.007622
   49  F  3  X   -0.001013   0.000767  -0.023056  -0.000102   0.002603
   50  F  3  Y    0.024194  -0.000000   0.000121  -0.029040  -0.000060
   51  F  3  Z   -0.002868  -0.000283  -0.007762   0.000024  -0.027293
   52  F  3  S   -0.000000  -0.081264  -0.051769  -0.000279   0.031247
   53  F  3  X   -0.001444  -0.000419  -0.039212  -0.000171   0.003486
   54  F  3  Y    0.034472  -0.000001   0.000216  -0.051796  -0.000106
   55  F  3  Z   -0.004086   0.000129  -0.014515   0.000039  -0.048275
   56  F  3  S   -0.000000  -0.015349  -0.004162  -0.000023   0.002514
   57  F  3  X   -0.001324   0.024726   0.003422   0.000019  -0.001474
   58  F  3  Y    0.031636   0.000001  -0.000006   0.001482   0.000003
   59  F  3  Z   -0.003750  -0.008759  -0.000418  -0.000006   0.001888
   60  F  3  S   -0.000024  -1.093581  -0.331178  -0.001815   0.198954
   61  F  3  X   -0.000260   0.262713  -0.181987  -0.000794   0.022783
   62  F  3  Y    0.006444   0.000001   0.000935  -0.224347  -0.000461
   63  F  3  Z   -0.000762  -0.093009  -0.058487   0.000192  -0.211811
   64  F  3 XX    0.000041  -0.003341  -0.001957  -0.000011   0.001642
   65  F  3 YY   -0.000007  -0.002358  -0.002169  -0.000012   0.001352
   66  F  3 ZZ   -0.000034  -0.002482  -0.002408  -0.000012   0.000948
   67  F  3 XY   -0.000529   0.000000  -0.000003   0.000704   0.000001
   68  F  3 XZ    0.000060   0.000401   0.000275   0.000000   0.000481
   69  F  3 YZ    0.000256  -0.000000   0.000001  -0.000202  -0.000000
   70  F  4  S   -0.000001   0.012634  -0.004842  -0.007532  -0.002147
   71  F  4  S   -0.000001   0.020450  -0.007761  -0.012072  -0.003441
   72  F  4  X    0.072004  -0.000397  -0.026788   0.002443   0.006586
   73  F  4  Y   -0.102235  -0.000671   0.002984  -0.024579   0.001210
   74  F  4  Z    0.148630  -0.000275  -0.004685   0.001853  -0.027925
   75  F  4  S    0.000003  -0.081238   0.031816   0.049499   0.014106
   76  F  4  X    0.102596   0.000186  -0.047194   0.005271   0.012009
   77  F  4  Y   -0.145668   0.000352   0.006342  -0.042259   0.002615
   78  F  4  Z    0.211773   0.000140  -0.007940   0.003952  -0.049622
   79  F  4  S    0.000004  -0.015320   0.002578   0.003948   0.001161
   80  F  4  X    0.094144  -0.012357   0.002073   0.000942  -0.000040
   81  F  4  Y   -0.133685  -0.021402   0.001031   0.003122   0.000449
   82  F  4  Z    0.194345  -0.008731   0.000726   0.000655   0.001641
   83  F  4  S   -0.000132  -1.093063   0.202947   0.316445   0.089303
   84  F  4  X    0.019108  -0.131445  -0.208278   0.017030   0.050184
   85  F  4  Y   -0.027199  -0.227441   0.020854  -0.193182   0.008150
   86  F  4  Z    0.039472  -0.093005  -0.037088   0.013013  -0.216201
   87  F  4 XX    0.001609  -0.002603   0.000894   0.002311   0.000807
   88  F  4 YY   -0.003351  -0.003094   0.001789   0.001723   0.000789
   89  F  4 ZZ    0.001745  -0.002480   0.001329   0.002215   0.000181
   90  F  4 XY    0.000001  -0.000491  -0.000302   0.000110   0.000229
   91  F  4 XZ    0.002587  -0.000201  -0.000159   0.000162  -0.000236
   92  F  4 YZ    0.002077  -0.000347   0.000067   0.000080  -0.000479
   93  F  5  S    0.000001   0.012634  -0.004905   0.007500  -0.002116
   94  F  5  S    0.000001   0.020451  -0.007862   0.012021  -0.003392
   95  F  5  X   -0.074031  -0.000397  -0.026766  -0.002694   0.006576
   96  F  5  Y   -0.102235   0.000672  -0.002779  -0.024598  -0.001312
   97  F  5  Z   -0.145762  -0.000275  -0.004670  -0.001777  -0.027932
   98  F  5  S   -0.000003  -0.081242   0.032229  -0.049286   0.013903
   99  F  5  X   -0.105483   0.000187  -0.047149  -0.005714   0.011987
  100  F  5  Y   -0.145668  -0.000351  -0.005990  -0.042301  -0.002789
  101  F  5  Z   -0.207687   0.000140  -0.007908  -0.003815  -0.049638
  102  F  5  S   -0.000003  -0.015314   0.002611  -0.003934   0.001145
  103  F  5  X   -0.096796  -0.012354   0.002080  -0.000927  -0.000044
  104  F  5  Y   -0.133682   0.021400  -0.001056   0.003122  -0.000436
  105  F  5  Z   -0.190596  -0.008728   0.000731  -0.000658   0.001638
  106  F  5  S    0.000026  -1.092980   0.205556  -0.315247   0.087993
  107  F  5  X   -0.019660  -0.131421  -0.208136  -0.018997   0.050107
  108  F  5  Y   -0.027164   0.227393  -0.019229  -0.193259  -0.008938
  109  F  5  Z   -0.038719  -0.092989  -0.036988  -0.012451  -0.216256
  110  F  5 XX   -0.001642  -0.002604   0.000914  -0.002306   0.000798
  111  F  5 YY    0.003351  -0.003095   0.001804  -0.001711   0.000782
  112  F  5 ZZ   -0.001711  -0.002481   0.001347  -0.002204   0.000172
  113  F  5 XY    0.000044   0.000491   0.000301   0.000114  -0.000228
  114  F  5 XZ   -0.002573  -0.000201  -0.000158  -0.000163  -0.000237
  115  F  5 YZ    0.002016   0.000347  -0.000068   0.000078   0.000479

                     26         27         28         29         30
                    0.3676     0.3676     0.3676     0.3927     0.4161
                     A          A          A          A          A   
    1  B  1  S   -0.000002  -0.000010   0.000016   0.066670   0.000000
    2  B  1  S   -0.000006  -0.000025  -0.000029   0.106710   0.000000
    3  B  1  X    0.019001   0.128323   0.051735  -0.000018   0.000000
    4  B  1  Y    0.137880  -0.013256  -0.017762   0.000009   0.000097
    5  B  1  Z    0.011409  -0.053500   0.128495  -0.000040  -0.000000
    6  B  1  S   -0.000052  -0.000138  -0.001271  -0.356436   0.000002
    7  B  1  X    0.011847   0.080119   0.032266  -0.000021   0.000000
    8  B  1  Y    0.086045  -0.008265  -0.011074   0.000001   0.000135
    9  B  1  Z    0.007115  -0.033409   0.080233  -0.000003  -0.000001
   10  B  1  S    0.001472   0.003820   0.027988   2.132783  -0.000057
   11  B  1  X    0.493178   3.329171   1.342121   0.000737  -0.000000
   12  B  1  Y    3.578016  -0.344019  -0.460962   0.000103   0.000244
   13  B  1  Z    0.296058  -1.387986   3.332915  -0.000308   0.000003
   14  B  1  S   -0.000052  -0.000315   0.000619   1.894810   0.000003
   15  B  1  X   -0.075699  -0.511370  -0.206098   0.000125  -0.000002
   16  B  1  Y   -0.549211   0.052788   0.070729  -0.000038  -0.000662
   17  B  1  Z   -0.045454   0.213123  -0.511980   0.000326   0.000003
   18  B  1 XX   -0.002557  -0.038670   0.008800  -0.001097   0.000008
   19  B  1 YY    0.006277   0.020986   0.032879  -0.001134  -0.000007
   20  B  1 ZZ   -0.003767   0.017544  -0.042545  -0.001040   0.000001
   21  B  1 XY    0.037013  -0.003560  -0.004770   0.000007  -0.010401
   22  B  1 XZ    0.003609   0.024360   0.009836  -0.000024   0.000013
   23  B  1 YZ    0.026168  -0.002517  -0.003372   0.000005   0.014772
   24  F  2  S    0.002120  -0.009938   0.023862  -0.028731  -0.000000
   25  F  2  S    0.003673  -0.017219   0.041343  -0.051200  -0.000000
   26  F  2  X   -0.000756  -0.005125  -0.002045   0.000004   0.000060
   27  F  2  Y   -0.005475   0.000526   0.000704   0.000001   0.070457
   28  F  2  Z   -0.001556   0.007304  -0.017562  -0.058682  -0.000000
   29  F  2  S   -0.012495   0.058569  -0.140643   0.147376   0.000001
   30  F  2  X   -0.002573  -0.017400  -0.006996   0.000002   0.000057
   31  F  2  Y   -0.018665   0.001794   0.002404  -0.000000   0.066793
   32  F  2  Z    0.000815  -0.003809   0.009095  -0.102995  -0.000000
   33  F  2  S   -0.020457   0.095916  -0.230116   0.593925   0.000001
   34  F  2  X    0.005532   0.037275   0.015119   0.000018   0.000242
   35  F  2  Y    0.040176  -0.003865  -0.005179   0.000007   0.284602
   36  F  2  Z   -0.019685   0.092325  -0.221692  -0.038063   0.000000
   37  F  2  S   -0.231326   1.082066  -2.607549  -1.772846   0.000010
   38  F  2  X   -0.085638  -0.577916  -0.233195  -0.000108  -0.000553
   39  F  2  Y   -0.621447   0.059760   0.080076  -0.000029  -0.649592
   40  F  2  Z    0.185650  -0.869252   2.091638   0.120502  -0.000009
   41  F  2 XX   -0.000226  -0.000747  -0.001201  -0.010305  -0.000002
   42  F  2 YY    0.000090   0.001381  -0.000344  -0.010303   0.000002
   43  F  2 ZZ    0.001192  -0.005585   0.013426  -0.010836  -0.000000
   44  F  2 XY    0.001320  -0.000127  -0.000170  -0.000000   0.002672
   45  F  2 XZ   -0.000971  -0.006559  -0.002645   0.000001  -0.000003
   46  F  2 YZ   -0.007049   0.000678   0.000908  -0.000000  -0.003585
   47  F  3  S    0.002622   0.025799   0.001090  -0.028719   0.000000
   48  F  3  S    0.004543   0.044700   0.001886  -0.051179   0.000000
   49  F  3  X   -0.002041  -0.017738  -0.002638  -0.055379   0.000020
   50  F  3  Y   -0.005470   0.000525   0.000704   0.000001  -0.070620
   51  F  3  Z    0.000000   0.006586  -0.004904   0.019571   0.000057
   52  F  3  S   -0.015457  -0.152027  -0.006461   0.147304  -0.000000
   53  F  3  X    0.000178   0.009699  -0.005923  -0.097145   0.000019
   54  F  3  Y   -0.018665   0.001794   0.002403  -0.000000  -0.066975
   55  F  3  Z   -0.002519  -0.002333  -0.017793   0.034351   0.000054
   56  F  3  S   -0.025292  -0.249143  -0.010125   0.593844  -0.000001
   57  F  3  X   -0.021299  -0.226516   0.003736  -0.036199   0.000081
   58  F  3  Y    0.040214  -0.003869  -0.005185   0.000008  -0.285137
   59  F  3  Z    0.012809   0.077672   0.041451   0.012718   0.000229
   60  F  3  S   -0.286146  -2.810319  -0.128145  -1.773794   0.000014
   61  F  3  X    0.190822   2.139358  -0.113593   0.114988  -0.000190
   62  F  3  Y   -0.621563   0.059771   0.080091  -0.000029   0.650793
   63  F  3  Z   -0.149155  -0.719640  -0.621093  -0.040597  -0.000522
   64  F  3 XX    0.000809   0.013022  -0.003432  -0.010769  -0.000002
   65  F  3 YY    0.000057  -0.000880   0.001092  -0.010307   0.000002
   66  F  3 ZZ    0.000438   0.000728   0.002851  -0.010366  -0.000000
   67  F  3 XY   -0.006207   0.000597   0.000800  -0.000000   0.002486
   68  F  3 XZ   -0.001297  -0.005231  -0.006164   0.000190  -0.000003
   69  F  3 YZ    0.003594  -0.000346  -0.000463   0.000000  -0.003711
   70  F  4  S   -0.023289  -0.005912  -0.009813  -0.028710  -0.000012
   71  F  4  S   -0.040351  -0.010245  -0.017004  -0.051164  -0.000022
   72  F  4  X   -0.006466  -0.006558  -0.004440   0.027693   0.040719
   73  F  4  Y   -0.015365  -0.001987  -0.003424   0.047963   0.000043
   74  F  4  Z   -0.004489   0.001105  -0.006804   0.019557  -0.057592
[...]
  108  F  5  Y   -0.116560  -1.208919   1.573970  -0.265484  -0.000316
  109  F  5  Z   -0.546319   0.801361  -0.331063   0.109601   0.536776
  110  F  5 XX   -0.002175  -0.003899  -0.001859   0.011160   0.000123
  111  F  5 YY   -0.000795  -0.003172   0.009617   0.010218  -0.000002
  112  F  5 ZZ    0.002495  -0.000919  -0.000773   0.011398  -0.000127
  113  F  5 XY    0.003759   0.006206  -0.003205   0.000942  -0.002770
  114  F  5 XZ    0.001160  -0.004704  -0.000992  -0.000386  -0.000051
  115  F  5 YZ   -0.004900   0.004248  -0.002939   0.000665   0.003917

                     31
                    0.4188
                     A   
    1  B  1  S    0.000062
    2  B  1  S    0.000140
    3  B  1  X   -0.000099
    4  B  1  Y    0.000000
    5  B  1  Z   -0.000092
    6  B  1  S    0.000685
    7  B  1  X   -0.000072
    8  B  1  Y    0.000000
    9  B  1  Z   -0.000120
   10  B  1  S   -0.029820
   11  B  1  X    0.001278
   12  B  1  Y   -0.000026
   13  B  1  Z   -0.000157
   14  B  1  S    0.002254
   15  B  1  X    0.000916
   16  B  1  Y   -0.000008
   17  B  1  Z    0.000818
   18  B  1 XX    0.008316
   19  B  1 YY   -0.007921
   20  B  1 ZZ    0.000278
   21  B  1 XY    0.000004
   22  B  1 XZ    0.013123
   23  B  1 YZ   -0.000004
   24  F  2  S   -0.000037
   25  F  2  S   -0.000066
   26  F  2  X    0.069517
   27  F  2  Y   -0.000026
   28  F  2  Z   -0.000005
   29  F  2  S    0.000206
   30  F  2  X    0.065011
   31  F  2  Y   -0.000025
   32  F  2  Z   -0.000035
   33  F  2  S    0.000540
   34  F  2  X    0.287387
   35  F  2  Y   -0.000108
   36  F  2  Z    0.000160
   37  F  2  S    0.006250
   38  F  2  X   -0.657941
   39  F  2  Y    0.000253
   40  F  2  Z   -0.004546
   41  F  2 XX   -0.002293
   42  F  2 YY    0.002290
   43  F  2 ZZ   -0.000031
   44  F  2 XY   -0.000001
   45  F  2 XZ   -0.004002
   46  F  2 YZ    0.000001
   47  F  3  S   -0.000033
   48  F  3  S   -0.000060
   49  F  3  X    0.023177
   50  F  3  Y    0.000026
   51  F  3  Z    0.065577
   52  F  3  S    0.000173
   53  F  3  X    0.021648
   54  F  3  Y    0.000024
   55  F  3  Z    0.061344
   56  F  3  S    0.000672
   57  F  3  X    0.095980
   58  F  3  Y    0.000106
   59  F  3  Z    0.271026
   60  F  3  S    0.004322
   61  F  3  X   -0.222752
   62  F  3  Y   -0.000237
   63  F  3  Z   -0.619605
   64  F  3 XX   -0.002463
   65  F  3 YY    0.002284
   66  F  3 ZZ    0.000135
   67  F  3 XY   -0.000001
   68  F  3 XZ   -0.003936
   69  F  3 YZ    0.000001
   70  F  4  S   -0.000000
   71  F  4  S   -0.000001
   72  F  4  X   -0.046283
   73  F  4  Y    0.040051
   74  F  4  Z   -0.032691
   75  F  4  S    0.000007
   76  F  4  X   -0.043264
   77  F  4  Y    0.037422
   78  F  4  Z   -0.030554
   79  F  4  S   -0.000076
   80  F  4  X   -0.191441
   81  F  4  Y    0.165751
   82  F  4  Z   -0.135234
   83  F  4  S    0.007459
   84  F  4  X    0.439722
   85  F  4  Y   -0.376373
   86  F  4  Z    0.310794
   87  F  4 XX   -0.002436
   88  F  4 YY    0.002506
   89  F  4 ZZ   -0.000069
   90  F  4 XY   -0.000082
   91  F  4 XZ   -0.003865
   92  F  4 YZ   -0.000057
   93  F  5  S    0.000000
   94  F  5  S    0.000000
   95  F  5  X   -0.046253
   96  F  5  Y   -0.040051
   97  F  5  Z   -0.032733
   98  F  5  S    0.000005
   99  F  5  X   -0.043236
  100  F  5  Y   -0.037422
  101  F  5  Z   -0.030593
  102  F  5  S   -0.000082
  103  F  5  X   -0.191316
  104  F  5  Y   -0.165755
  105  F  5  Z   -0.135408
  106  F  5  S    0.007506
  107  F  5  X    0.439446
  108  F  5  Y    0.376381
  109  F  5  Z    0.311198
  110  F  5 XX   -0.002436
  111  F  5 YY    0.002506
  112  F  5 ZZ   -0.000069
  113  F  5 XY    0.000080
  114  F  5 XZ   -0.003865
  115  F  5 YZ    0.000060

     ---------------------------------------------------------------------
     PROPERTIES FOR THE B3LYP    DFT FUNCTIONAL (RHF  TYPE) DENSITY MATRIX
     ---------------------------------------------------------------------

          -----------------
          ENERGY COMPONENTS
          -----------------

         WAVEFUNCTION NORMALIZATION =       1.0000000000

                ONE ELECTRON ENERGY =    -957.0729486711
                TWO ELECTRON ENERGY =     354.1426442963
           NUCLEAR REPULSION ENERGY =     178.4018477632
                                      ------------------
                       TOTAL ENERGY =    -424.5284566115

 ELECTRON-ELECTRON POTENTIAL ENERGY =     354.1426442963
  NUCLEUS-ELECTRON POTENTIAL ENERGY =   -1380.2511816871
   NUCLEUS-NUCLEUS POTENTIAL ENERGY =     178.4018477632
                                      ------------------
             TOTAL POTENTIAL ENERGY =    -847.7066896275
               TOTAL KINETIC ENERGY =     423.1782330160
                 VIRIAL RATIO (V/T) =       2.0031906736

          ---------------------------------------
          MULLIKEN AND LOWDIN POPULATION ANALYSES
          ---------------------------------------

     ATOMIC MULLIKEN POPULATION IN EACH MOLECULAR ORBITAL

                      1          2          3          4          5

                  2.000000   2.000000   2.000000   2.000000   2.000000

    1            -0.000061  -0.000076  -0.000005  -0.000177   2.016858
    2             0.012673   1.979739   0.000036   0.007632  -0.004214
    3             1.984656   0.011896   0.000016   0.003511  -0.004214
    4             0.001355   0.004168   0.877794   1.116763  -0.004215
    5             0.001377   0.004273   1.122159   0.872271  -0.004215

                      6          7          8          9         10

                  2.000000   2.000000   2.000000   2.000000   2.000000

    1            -0.142475   0.204258   0.204247   0.204193   0.263755
    2             0.535268   0.313688   1.033285   0.000212   0.433970
    3             0.535955   1.310317   0.035918   0.000203   0.434315
    4             0.535595   0.084943   0.357397   0.904553   0.433974
    5             0.535656   0.086795   0.369153   0.890839   0.433986

                     11         12         13         14         15

                  2.000000   2.000000   2.000000   2.000000   2.000000

    1             0.366191   0.366194   0.366215   0.065756   0.065743
    2             0.417820   0.601829   0.205717   0.483508   0.483556
    3             0.763604   0.256095   0.205903   0.483934   0.484222
    4             0.226070   0.386601   0.612544   0.483398   0.483235
    5             0.226314   0.389281   0.609622   0.483404   0.483245

                     16         17         18         19         20

                  2.000000   2.000000   2.000000   2.000000   2.000000

    1             0.075046   0.074973   0.074991   0.000000  -0.000000
    2             0.468829   0.484125   0.491650   0.749948   0.451553
    3             0.474969   0.477606   0.491136   0.749556   0.545676
    4             0.490581   0.481680   0.471066   0.237800   0.513832
    5             0.490575   0.481616   0.471157   0.262695   0.488939

                     21

                  2.000000

    1             0.000000
    2             0.297715
    3             0.203192
    4             0.749559
    5             0.749533

               ----- POPULATIONS IN EACH AO -----
                             MULLIKEN      LOWDIN
              1  B  1  S      1.13183     1.05973
              2  B  1  S      0.84834     0.88226
              3  B  1  X      0.14995     0.14939
              4  B  1  Y      0.14994     0.14933
              5  B  1  Z      0.14994     0.14942
              6  B  1  S      0.59031     0.28533
              7  B  1  X      0.30200     0.31275
              8  B  1  Y      0.30198     0.31417
              9  B  1  Z      0.30200     0.31205
             10  B  1  S     -0.38825     0.08944
             11  B  1  X      0.08114     0.12433
             12  B  1  Y      0.08114     0.12438
             13  B  1  Z      0.08119     0.12429
             14  B  1  S      0.01885     0.03421
             15  B  1  X      0.01907     0.02696
             16  B  1  Y      0.01907     0.02698
             17  B  1  Z      0.01907     0.02694
             18  B  1 XX      0.03652     0.18046
             19  B  1 YY      0.03646     0.18026
             20  B  1 ZZ      0.04112     0.18852
             21  B  1 XY      0.08409     0.16798
             22  B  1 XZ      0.07494     0.14802
             23  B  1 YZ      0.07492     0.14812
             24  F  2  S      1.07796     1.02727
             25  F  2  S      0.91098     0.93653
             26  F  2  X      0.41499     0.41920
             27  F  2  Y      0.41498     0.41919
             28  F  2  Z      0.35860     0.35933
             29  F  2  S      1.09222     0.60154
             30  F  2  X      0.81196     0.80072
             31  F  2  Y      0.81194     0.80071
             32  F  2  Z      0.73405     0.70348
             33  F  2  S      0.90765     0.44056
             34  F  2  X      0.62907     0.55321
             35  F  2  Y      0.62909     0.55322
             36  F  2  Z      0.47734     0.48287
             37  F  2  S     -0.02429     0.11724
             38  F  2  X      0.07372     0.12290
             39  F  2  Y      0.07373     0.12290
             40  F  2  Z      0.08018     0.11371
             41  F  2 XX     -0.01291     0.20803
             42  F  2 YY     -0.01291     0.20803
             43  F  2 ZZ     -0.00090     0.21055
             44  F  2 XY      0.00002     0.00001
             45  F  2 XZ      0.00054     0.00043
             46  F  2 YZ      0.00054     0.00043
             47  F  3  S      1.07796     1.02727
             48  F  3  S      0.91098     0.93653
             49  F  3  X      0.36488     0.36591
             50  F  3  Y      0.41498     0.41919
             51  F  3  Z      0.40871     0.41258
             52  F  3  S      1.09223     0.60064
             53  F  3  X      0.74273     0.71221
             54  F  3  Y      0.81194     0.80070
             55  F  3  Z      0.80328     0.79153
             56  F  3  S      0.90762     0.43910
             57  F  3  X      0.49419     0.48936
             58  F  3  Y      0.62907     0.55321
             59  F  3  Z      0.61220     0.54858
             60  F  3  S     -0.02431     0.11715
             61  F  3  X      0.07951     0.11486
             62  F  3  Y      0.07371     0.12290
             63  F  3  Z      0.07442     0.12215
             64  F  3 XX     -0.00239     0.20897
             65  F  3 YY     -0.01292     0.20757
             66  F  3 ZZ     -0.01172     0.20800
             67  F  3 XY      0.00049     0.00040
             68  F  3 XZ      0.00084     0.00090
             69  F  3 YZ      0.00007     0.00005
             70  F  4  S      1.07796     1.02728
             71  F  4  S      0.91098     0.93654
             72  F  4  X      0.40244     0.40590
             73  F  4  Y      0.37742     0.37918
             74  F  4  Z      0.40871     0.41255
             75  F  4  S      1.09222     0.59929
             76  F  4  X      0.79463     0.78027
             77  F  4  Y      0.76006     0.73267
             78  F  4  Z      0.80328     0.79083
             79  F  4  S      0.90767     0.43692
             80  F  4  X      0.59532     0.54106
             81  F  4  Y      0.52794     0.50521
             82  F  4  Z      0.61221     0.54771
             83  F  4  S     -0.02418     0.11703
             84  F  4  X      0.07515     0.12126
             85  F  4  Y      0.07809     0.11714
             86  F  4  Z      0.07443     0.12213
             87  F  4 XX     -0.01051     0.20725
             88  F  4 YY     -0.00525     0.20713
             89  F  4 ZZ     -0.01173     0.20710
             90  F  4 XY      0.00094     0.00106
             91  F  4 XZ      0.00026     0.00026
             92  F  4 YZ      0.00065     0.00067
             93  F  5  S      1.07796     1.02728
             94  F  5  S      0.91098     0.93654
             95  F  5  X      0.40244     0.40590
             96  F  5  Y      0.37742     0.37918
             97  F  5  Z      0.40871     0.41255
             98  F  5  S      1.09222     0.59929
             99  F  5  X      0.79463     0.78027
            100  F  5  Y      0.76006     0.73267
            101  F  5  Z      0.80328     0.79083
            102  F  5  S      0.90767     0.43692
            103  F  5  X      0.59532     0.54106
            104  F  5  Y      0.52794     0.50521
            105  F  5  Z      0.61221     0.54771
            106  F  5  S     -0.02420     0.11703
            107  F  5  X      0.07515     0.12126
            108  F  5  Y      0.07810     0.11714
            109  F  5  Z      0.07443     0.12213
            110  F  5 XX     -0.01051     0.20725
            111  F  5 YY     -0.00525     0.20713
            112  F  5 ZZ     -0.01173     0.20710
            113  F  5 XY      0.00094     0.00106
            114  F  5 XZ      0.00026     0.00026
            115  F  5 YZ      0.00065     0.00067

          ----- MULLIKEN ATOMIC OVERLAP POPULATIONS -----
          (OFF-DIAGONAL ELEMENTS NEED TO BE MULTIPLIED BY 2)

             1           2           3           4           5

    1    3.1967498
    2    0.2518479   9.1303352
    3    0.2521676   0.0220803   9.1299993
    4    0.2523343   0.0221427   0.0221151   9.1300471
    5    0.2525245   0.0221339   0.0221060   0.0220523   9.1298590

          TOTAL MULLIKEN AND LOWDIN ATOMIC POPULATIONS
       ATOM         MULL.POP.    CHARGE          LOW.POP.     CHARGE
    1 B             4.205624    0.794376         5.205321   -0.205321
    2 F             9.448540   -0.448540         9.202063   -0.202063
    3 F             9.448468   -0.448468         9.199765   -0.199765
    4 F             9.448692   -0.448692         9.196427   -0.196427
    5 F             9.448676   -0.448676         9.196425   -0.196425

          -------------------------------
          BOND ORDER AND VALENCE ANALYSIS     BOND ORDER THRESHOLD=0.050
          -------------------------------

                   BOND                       BOND                       BOND
  ATOM PAIR DIST  ORDER      ATOM PAIR DIST  ORDER      ATOM PAIR DIST  ORDER
    1   2  1.417  0.848        1   3  1.417  0.849        1   4  1.417  0.849
    1   5  1.417  0.850        2   3  2.314  0.101        2   4  2.314  0.101
    2   5  2.314  0.101        3   4  2.313  0.101        3   5  2.313  0.101
    4   5  2.313  0.101

                       TOTAL       BONDED        FREE
      ATOM            VALENCE     VALENCE     VALENCE
    1 B                 3.396       3.396      -0.000
    2 F                 1.152       1.152       0.000
    3 F                 1.152       1.152      -0.000
    4 F                 1.153       1.153       0.000
    5 F                 1.153       1.153      -0.000

          ---------------------
          ELECTROSTATIC MOMENTS
          ---------------------

 POINT   1           X           Y           Z (BOHR)    CHARGE
                 0.000000    0.000000   -0.000000       -1.00 (A.U.)
         DX          DY          DZ         /D/  (DEBYE)
     0.000917    0.000012    0.000385    0.000994
 ...... END OF PROPERTY EVALUATION ......
 CPU     0: STEP CPU TIME=     0.04 TOTAL CPU TIME=          8.7 (      0.1 MIN)
 TOTAL WALL CLOCK TIME=         24.3 SECONDS, CPU UTILIZATION IS    35.99%
  $VIB   
          IVIB=   0 IATOM=   0 ICOORD=   0 E=     -424.5284566115
 -7.188782382E-07-4.915804782E-08-2.791991680E-06 5.587882918E-07 9.227879538E-09
  2.676612845E-05 3.536537709E-05 1.014681465E-08-7.633508888E-06-1.759989720E-05
 -1.993940673E-05-8.167810855E-06-1.760538994E-05 1.996919008E-05-8.172817028E-06
  9.166076556E-04 1.187639248E-05 3.852646173E-04
 ......END OF GEOMETRY SEARCH......
 CPU     0: STEP CPU TIME=     0.00 TOTAL CPU TIME=          8.7 (      0.1 MIN)
 TOTAL WALL CLOCK TIME=         24.3 SECONDS, CPU UTILIZATION IS    35.97%
 AN INPUT FILE FOR -MOLPLT- HAS BEEN PUNCHED.
              1084609  WORDS OF DYNAMIC MEMORY USED
 EXECUTION OF GAMESS TERMINATED NORMALLY Wed Mar 27 15:27:59 2019
 DDI: 263640 bytes (0.3 MB / 0 MWords) used by master data server.
Note: The following floating-point exceptions are signalling: IEEE_DENORMAL
Note: The following floating-point exceptions are signalling: IEEE_DENORMAL
Note: The following floating-point exceptions are signalling: IEEE_DENORMAL
Note: The following floating-point exceptions are signalling: IEEE_DENORMAL
Note: The following floating-point exceptions are signalling: IEEE_DENORMAL
Note: The following floating-point exceptions are signalling: IEEE_DENORMAL
Note: The following floating-point exceptions are signalling: IEEE_DENORMAL

 ----------------------------------------
 CPU timing information for all processes
 ========================================
 0: 8.490 + 0.254 = 8.744
 1: 8.792 + 0.125 = 8.917
 2: 8.751 + 0.158 = 8.910
 3: 8.895 + 0.146 = 9.41
 4: 8.964 + 0.182 = 9.147
 5: 8.992 + 0.151 = 9.144
 6: 9.04 + 0.163 = 9.168
 7: 8.987 + 0.142 = 9.130
 8: 8.541 + 0.195 = 8.736
 9: 8.702 + 0.122 = 8.825
 10: 8.732 + 0.137 = 8.870
 11: 8.941 + 0.126 = 9.67
 12: 8.870 + 0.169 = 9.39
 13: 8.811 + 0.117 = 8.928
 14: 8.929 + 0.153 = 9.82
 15: 8.978 + 0.105 = 9.84
 ----------------------------------------
Note: The following floating-point exceptions are signalling: IEEE_UNDERFLOW_FLAG IEEE_DENORMAL
Note: The following floating-point exceptions are signalling: IEEE_DENORMALNote: The following floating-point exceptions are signalling:
 IEEE_DENORMAL
Note: The following floating-point exceptions are signalling: IEEE_DENORMAL
Note: The following floating-point exceptions are signalling:Note: The following floating-point exceptions are signalling: IEEE_DENORMAL IEEE_DENORMAL

Note: The following floating-point exceptions are signalling: IEEE_DENORMAL
Note: The following floating-point exceptions are signalling: IEEE_DENORMAL
Note: The following floating-point exceptions are signalling: IEEE_DENORMAL
 ddikick.x: exited gracefully.
unset echo
----- accounting info -----
Files used on the master node node004 were:
-rw-r--r-- 1 mdi0316 at2  599149 Mar 27 15:27 /tmp/gms_bf4_N311_B3LYP_OPT_ZMAT_DFT.dat
-rw-r--r-- 1 mdi0316 at2     794 Mar 27 15:27 /tmp/gms_bf4_N311_B3LYP_OPT_ZMAT_DFT.F05
-rw-r--r-- 1 mdi0316 at2 2781200 Mar 27 15:27 /tmp/gms_bf4_N311_B3LYP_OPT_ZMAT_DFT.F10
-rw-r--r-- 1 mdi0316 at2 1561704 Mar 27 15:27 /tmp/gms_bf4_N311_B3LYP_OPT_ZMAT_DFT.F22
-rw-r--r-- 1 mdi0316 at2 1561704 Mar 27 15:27 /tmp/gms_bf4_N311_B3LYP_OPT_ZMAT_DFT.F22.001
-rw-r--r-- 1 mdi0316 at2 1561704 Mar 27 15:27 /tmp/gms_bf4_N311_B3LYP_OPT_ZMAT_DFT.F22.002
-rw-r--r-- 1 mdi0316 at2 1561704 Mar 27 15:27 /tmp/gms_bf4_N311_B3LYP_OPT_ZMAT_DFT.F22.003
-rw-r--r-- 1 mdi0316 at2 1561704 Mar 27 15:27 /tmp/gms_bf4_N311_B3LYP_OPT_ZMAT_DFT.F22.004
-rw-r--r-- 1 mdi0316 at2 1561704 Mar 27 15:27 /tmp/gms_bf4_N311_B3LYP_OPT_ZMAT_DFT.F22.005
-rw-r--r-- 1 mdi0316 at2 1561704 Mar 27 15:27 /tmp/gms_bf4_N311_B3LYP_OPT_ZMAT_DFT.F22.006
-rw-r--r-- 1 mdi0316 at2 1561704 Mar 27 15:27 /tmp/gms_bf4_N311_B3LYP_OPT_ZMAT_DFT.F22.007
-rw-r--r-- 1 mdi0316 at2 1561704 Mar 27 15:27 /tmp/gms_bf4_N311_B3LYP_OPT_ZMAT_DFT.F22.008
-rw-r--r-- 1 mdi0316 at2 1561704 Mar 27 15:27 /tmp/gms_bf4_N311_B3LYP_OPT_ZMAT_DFT.F22.009
-rw-r--r-- 1 mdi0316 at2 1561704 Mar 27 15:27 /tmp/gms_bf4_N311_B3LYP_OPT_ZMAT_DFT.F22.010
-rw-r--r-- 1 mdi0316 at2 1561704 Mar 27 15:27 /tmp/gms_bf4_N311_B3LYP_OPT_ZMAT_DFT.F22.011
-rw-r--r-- 1 mdi0316 at2 1561704 Mar 27 15:27 /tmp/gms_bf4_N311_B3LYP_OPT_ZMAT_DFT.F22.012
-rw-r--r-- 1 mdi0316 at2 1561704 Mar 27 15:27 /tmp/gms_bf4_N311_B3LYP_OPT_ZMAT_DFT.F22.013
-rw-r--r-- 1 mdi0316 at2 1561704 Mar 27 15:27 /tmp/gms_bf4_N311_B3LYP_OPT_ZMAT_DFT.F22.014
-rw-r--r-- 1 mdi0316 at2 1561704 Mar 27 15:27 /tmp/gms_bf4_N311_B3LYP_OPT_ZMAT_DFT.F22.015
ls: No match.
ls: No match.
ls: No match.
Wed Mar 27 15:28:02 CET 2019
0.119u 0.058s 0:28.77 0.5%	0+0k 1+12io 0pf+0w
