LAMMPS Description           (1st line of file)

4 atoms
2 bonds
1 angles

4 atom types           (# of nonbond atom types)
3 bond types          (# of bond types = sets of bond coefficients)
1 angle types         

-40.0 40.0 xlo xhi
-40.0 40.0 ylo yhi
-40.0 40.0 zlo zhi

Masses

1 86.8
2 67.0
3 15.0
4 29.0

Bond Coeffs

1 200 2.68974
2 200 3.04931
3 100 2.68974

Angle Coeffs

1 200 144.1868904

Atoms # full

1 anion  1 -1         10.0 0.0 0.0
2 ring   2  0.408675  0.930064 0.67314 0.003587
3 methyl 3  0.317505  3.618873 0.602433 0.01098
4 ethyl  4  0.273820  -1.57953 -0.87466 0.74759

#Velocities

Bonds

1 1 2 3
2 2 2 4

Angles

1 1 3 2 4

#Dihedrals
#Impropers
#Nonbond Coeffs
#Dihedral Coeffs
#Improper Coeffs
#BondBond Coeffs
#BondAngle Coeffs
#MiddleBondTorsion Coeffs
#EndBondTorsion Coeffs
#AngleTorsion Coeffs
#AngleAngleTorsion Coeffs
#BondBond13 Coeffs
#AngleAngle Coeffs

#Pair Coeffs
#1 1 0.35284751 0.70430108 4.19550342 12.00000000
#1 2 0.60375643 2.62038530 4.19550342 12.00000000
#1 3 0.70641068 0.81212731 4.19550342 12.00000000
#1 4 0.95759215 1.37446414 4.19550342 12.00000000
#2 2 1.03308602 9.74926686 4.19550342 12.00000000
#2 3 1.20873744 3.02155787 4.19550342 12.00000000
#2 4 1.63853338 5.11375852 4.19550342 12.00000000
#3 3 1.41425415 0.93646139 4.19550342 12.00000000
#3 4 1.91712655 1.58489018 4.19550342 12.00000000
#4 4 2.59880743 2.68230694 4.19550342 12.00000000
#
