LAMMPS data file via write_data, version 22 Aug 2018, timestep = 0

4 atoms
4 atom types
2 bonds
4 bond types
1 angles
1 angle types

-4.0000000000000000e+01 4.0000000000000000e+01 xlo xhi
-4.0000000000000000e+01 4.0000000000000000e+01 ylo yhi
-4.0000000000000000e+01 4.0000000000000000e+01 zlo zhi

Masses

1 86.8
2 67
3 15
4 29

Bond Coeffs # harmonic

1 200 2.68975
2 200 3.04931
3 100 2.68975
4 100 3.04931

Angle Coeffs # harmonic

1 200 144.187

Atoms # full

1 0 1 -1.0000000000000000e+00 1.0000000000000000e+01 0.0000000000000000e+00 0.0000000000000000e+00 0 0 0
2 0 2 4.0867500000000001e-01 9.3006400000000000e-01 6.7313999999999996e-01 3.5869999999999999e-03 0 0 0
3 0 3 3.1750499999999998e-01 3.6188729999999998e+00 6.0243300000000000e-01 1.0980000000000000e-02 0 0 0
4 0 4 2.7382000000000001e-01 -1.5795300000000001e+00 -8.7465999999999999e-01 7.4758999999999998e-01 0 0 0

Velocities

1 0.0000000000000000e+00 0.0000000000000000e+00 0.0000000000000000e+00
2 0.0000000000000000e+00 0.0000000000000000e+00 0.0000000000000000e+00
3 0.0000000000000000e+00 0.0000000000000000e+00 0.0000000000000000e+00
4 0.0000000000000000e+00 0.0000000000000000e+00 0.0000000000000000e+00

Bonds

1 1 2 3
2 2 2 4

Angles

1 1 3 2 4
