ITEM: TIMESTEP
0
ITEM: NUMBER OF ATOMS
80
ITEM: BOX BOUNDS pp pp pp
-4.0000000000000000e+01 4.0000000000000000e+01
-4.0000000000000000e+01 4.0000000000000000e+01
-4.0000000000000000e+01 4.0000000000000000e+01
ITEM: ATOMS id mass type x y z 
78 67 2 -39.7606 -32.9289 -38.5958 
79 15 3 -38.5677 -30.9368 -39.9535 
80 29 4 39.2864 -33.8146 -35.8472 
60 67 2 18.0709 -15.2414 -33.552 
61 15 3 18.8192 -17.5833 -32.461 
62 29 4 15.7137 -13.6906 -34.6859 
30 67 2 27.8684 -15.3072 -37.487 
31 15 3 27.0469 -13.204 -38.9485 
32 29 4 30.2465 -16.5196 -36.0303 
15 86.8 1 -10.805 -0.25449 -37.2088 
40 15 3 -28.8016 18.875 -38.7411 
39 67 2 -31.0293 20.1598 -39.5295 
36 67 2 -28.4115 27.7147 -35.2537 
37 15 3 -27.6224 25.1594 -34.9669 
38 29 4 -28.6973 29.9993 -37.2402 
17 86.8 1 -5.49156 23.3027 -31.7598 
58 15 3 1.8091 22.1818 -39.0194 
4 86.8 1 -0.921555 31.4227 -38.5649 
9 86.8 1 29.0907 -33.235 -21.3637 
20 86.8 1 28.7539 -12.8915 -27.5041 
33 67 2 9.09742 -33.817 -10.2096 
35 29 4 6.61679 -34.2993 -11.9011 
6 86.8 1 23.8607 -12.786 -14.7544 
50 29 4 -4.69551 -0.787675 -18.2909 
48 67 2 -5.37584 1.57929 -16.5072 
49 15 3 -4.33667 3.64642 -15.1353 
3 86.8 1 -36.8171 14.2976 -19.4253 
34 15 3 11.5826 -34.6999 -9.68115 
24 67 2 2.73372 -12.2714 -3.20626 
25 15 3 5.07382 -12.3746 -4.5284 
26 29 4 0.486709 -13.9528 -2.03528 
71 29 4 1.81825 -11.2423 -4.2634 
51 67 2 16.1497 -11.0825 -4.00909 
52 15 3 18.8343 -11.2316 -3.93576 
53 29 4 13.5794 -12.6292 -3.51032 
70 15 3 -1.37928 -7.40213 -6.44892 
69 67 2 0.730328 -9.01645 -6.02669 
18 86.8 1 -27.1548 9.41929 -9.98672 
7 86.8 1 22.1578 5.48786 -5.50354 
2 86.8 1 7.29414 32.6479 -7.57523 
14 86.8 1 4.3055 -37.4315 9.39068 
1 86.8 1 -39.161 -19.1491 0.890539 
10 86.8 1 -19.8872 -4.86895 7.63172 
16 86.8 1 -8.07335 -8.75822 0.604183 
54 67 2 -16.0867 -30.8016 16.399 
56 29 4 -16.4474 -33.6371 17.4368 
55 15 3 -14.4377 -28.6766 16.3867 
66 67 2 -4.41535 -25.7301 10.722 
67 15 3 -6.19312 -23.7315 10.4389 
68 29 4 -1.77661 -26.5191 12.0111 
5 86.8 1 -0.514897 -13.8698 11.0873 
11 86.8 1 26.393 -12.3701 14.9609 
72 67 2 -17.765 7.00213 12.3528 
73 15 3 -15.2213 7.6051 11.7198 
74 29 4 -19.5763 4.84404 13.4971 
46 15 3 -20.9616 11.0674 10.8534 
45 67 2 -19.2047 11.3133 12.8751 
47 29 4 -17.1077 13.1354 14.112 
8 86.8 1 -17.9652 -21.7039 22.7922 
42 67 2 -1.18749 -27.4951 29.6473 
43 15 3 -3.64463 -27.1462 28.6103 
12 86.8 1 8.19587 -12.022 26.709 
22 15 3 -37.703 -3.17059 29.031 
63 67 2 10.5597 9.819 24.814 
65 29 4 10.8643 6.9113 23.9775 
64 15 3 11.8496 11.9336 25.8624 
19 86.8 1 -6.79422 -30.4281 34.6635 
44 29 4 0.514636 -29.3041 31.4017 
21 67 2 -38.1057 -3.11269 31.6898 
23 29 4 -39.7866 -4.24956 33.9546 
75 67 2 -1.49194 -2.96999 30.3131 
76 15 3 -3.43845 -1.12111 30.1472 
77 29 4 -0.739257 -5.65651 31.5228 
13 86.8 1 18.8545 7.20409 39.2077 
41 29 4 -33.8408 19.7765 39.377 
57 67 2 2.68142 23.1159 38.6138 
59 29 4 4.49549 22.5237 36.2462 
27 67 2 -14.0457 34.5657 35.9556 
28 15 3 -14.3124 35.0711 33.3272 
29 29 4 -14.9319 35.4259 38.7344 
ITEM: TIMESTEP
4
ITEM: NUMBER OF ATOMS
80
ITEM: BOX BOUNDS pp pp pp
-4.0000000000000000e+01 4.0000000000000000e+01
-4.0000000000000000e+01 4.0000000000000000e+01
-4.0000000000000000e+01 4.0000000000000000e+01
ITEM: ATOMS id mass type x y z 
78 67 2 -39.7597 -32.9278 -38.5984 
79 15 3 -38.5668 -30.9355 -39.9554 
80 29 4 39.2843 -33.8169 -35.8424 
60 67 2 18.0732 -15.243 -33.5506 
61 15 3 18.8208 -17.585 -32.4597 
62 29 4 15.7099 -13.687 -34.6881 
30 67 2 27.8663 -15.3057 -37.4882 
31 15 3 27.0454 -13.2024 -38.9498 
32 29 4 30.2505 -16.5224 -36.027 
15 86.8 1 -10.8049 -0.254445 -37.2091 
40 15 3 -28.7993 18.8743 -38.7402 
39 67 2 -31.0266 20.1596 -39.5284 
36 67 2 -28.4111 27.7125 -35.2515 
37 15 3 -27.6218 25.1574 -34.9653 
38 29 4 -28.6981 30.0041 -37.2431 
17 86.8 1 -5.49174 23.3023 -31.7602 
58 15 3 1.80758 22.1821 -39.0169 
4 86.8 1 -0.92146 31.4224 -38.5658 
9 86.8 1 29.0907 -33.2351 -21.3641 
20 86.8 1 28.7536 -12.8919 -27.5058 
33 67 2 9.10006 -33.8169 -10.2079 
35 29 4 6.61192 -34.2997 -11.9038 
6 86.8 1 23.8599 -12.7861 -14.754 
50 29 4 -4.69517 -0.792116 -18.2943 
48 67 2 -5.37643 1.58185 -16.5054 
49 15 3 -4.33668 3.64863 -15.1339 
3 86.8 1 -36.8172 14.298 -19.4259 
34 15 3 11.585 -34.7002 -9.68001 
24 67 2 2.7346 -12.269 -3.20904 
25 15 3 5.07555 -12.3735 -4.52922 
26 29 4 0.481982 -13.9547 -2.03267 
71 29 4 1.82169 -11.2471 -4.25943 
51 67 2 16.1529 -11.081 -4.0096 
52 15 3 18.8372 -11.2308 -3.93611 
53 29 4 13.5747 -12.6313 -3.50962 
70 15 3 -1.38079 -7.40055 -6.4496 
69 67 2 0.728963 -9.01475 -6.02762 
18 86.8 1 -27.1543 9.41933 -9.98643 
7 86.8 1 22.1573 5.48773 -5.50339 
2 86.8 1 7.29406 32.6483 -7.57532 
14 86.8 1 4.30511 -37.4311 9.39085 
1 86.8 1 -39.1609 -19.1493 0.890648 
10 86.8 1 -19.8872 -4.86807 7.63231 
16 86.8 1 -8.072 -8.75834 0.603125 
54 67 2 -16.0863 -30.7985 16.3982 
56 29 4 -16.4488 -33.6422 17.4383 
55 15 3 -14.437 -28.674 16.3863 
66 67 2 -4.41782 -25.7289 10.7207 
67 15 3 -6.19507 -23.7301 10.4381 
68 29 4 -1.77169 -26.5212 12.0131 
5 86.8 1 -0.51482 -13.8703 11.0869 
11 86.8 1 26.3929 -12.3701 14.9612 
72 67 2 -17.7627 7.00302 12.3513 
73 15 3 -15.219 7.60558 11.7188 
74 29 4 -19.5802 4.83975 13.499 
46 15 3 -20.9638 11.0668 10.8516 
45 67 2 -19.2074 11.3124 12.8738 
47 29 4 -17.1038 13.1386 14.1147 
8 86.8 1 -17.965 -21.7046 22.792 
42 67 2 -1.18963 -27.4935 29.6459 
43 15 3 -3.64682 -27.1452 28.6093 
12 86.8 1 8.19556 -12.0217 26.7095 
22 15 3 -37.7019 -3.17006 29.0286 
63 67 2 10.5597 9.82188 24.8149 
65 29 4 10.8642 6.90589 23.9757 
64 15 3 11.8501 11.936 25.8634 
19 86.8 1 -6.79351 -30.4279 34.6625 
44 29 4 0.518192 -29.307 31.405 
21 67 2 -38.1042 -3.11169 31.6873 
23 29 4 -39.7893 -4.25119 33.9593 
75 67 2 -1.49285 -2.96744 30.312 
76 15 3 -3.43964 -1.11907 30.1466 
77 29 4 -0.737055 -5.66155 31.5247 
13 86.8 1 18.8543 7.20412 39.2074 
41 29 4 -33.8463 19.7764 39.375 
57 67 2 2.67953 23.1166 38.6166 
59 29 4 4.49845 22.5236 36.2418 
27 67 2 -14.0447 34.5651 35.9528 
28 15 3 -14.3118 35.0709 33.3247 
29 29 4 -14.9328 35.4269 38.74 
ITEM: TIMESTEP
0
ITEM: NUMBER OF ATOMS
80
ITEM: BOX BOUNDS pp pp pp
-4.0000000000000000e+01 4.0000000000000000e+01
-4.0000000000000000e+01 4.0000000000000000e+01
-4.0000000000000000e+01 4.0000000000000000e+01
ITEM: ATOMS id mass type x y z 
78 67 2 -39.7597 -32.9278 -38.5984 
79 15 3 -38.5668 -30.9355 -39.9554 
80 29 4 39.2843 -33.8169 -35.8424 
60 67 2 18.0732 -15.243 -33.5506 
61 15 3 18.8208 -17.585 -32.4597 
62 29 4 15.7099 -13.687 -34.6881 
30 67 2 27.8663 -15.3057 -37.4882 
31 15 3 27.0454 -13.2024 -38.9498 
32 29 4 30.2505 -16.5224 -36.027 
15 86.8 1 -10.8049 -0.254445 -37.2091 
40 15 3 -28.7993 18.8743 -38.7402 
39 67 2 -31.0266 20.1596 -39.5284 
36 67 2 -28.4111 27.7125 -35.2515 
37 15 3 -27.6218 25.1574 -34.9653 
17 86.8 1 -5.49174 23.3023 -31.7602 
58 15 3 1.80758 22.1821 -39.0169 
38 29 4 -28.6981 30.0041 -37.2431 
4 86.8 1 -0.92146 31.4224 -38.5658 
9 86.8 1 29.0907 -33.2351 -21.3641 
20 86.8 1 28.7536 -12.8919 -27.5058 
33 67 2 9.10006 -33.8169 -10.2079 
35 29 4 6.61192 -34.2997 -11.9038 
6 86.8 1 23.8599 -12.7861 -14.754 
50 29 4 -4.69517 -0.792116 -18.2943 
48 67 2 -5.37643 1.58185 -16.5054 
49 15 3 -4.33668 3.64863 -15.1339 
3 86.8 1 -36.8172 14.298 -19.4259 
34 15 3 11.585 -34.7002 -9.68001 
24 67 2 2.7346 -12.269 -3.20904 
25 15 3 5.07555 -12.3735 -4.52922 
26 29 4 0.481982 -13.9547 -2.03267 
71 29 4 1.82169 -11.2471 -4.25943 
51 67 2 16.1529 -11.081 -4.0096 
52 15 3 18.8372 -11.2308 -3.93611 
53 29 4 13.5747 -12.6313 -3.50962 
70 15 3 -1.38079 -7.40055 -6.4496 
69 67 2 0.728963 -9.01475 -6.02762 
18 86.8 1 -27.1543 9.41933 -9.98643 
7 86.8 1 22.1573 5.48773 -5.50339 
2 86.8 1 7.29406 32.6483 -7.57532 
14 86.8 1 4.30511 -37.4311 9.39085 
1 86.8 1 -39.1609 -19.1493 0.890648 
10 86.8 1 -19.8872 -4.86807 7.63231 
16 86.8 1 -8.072 -8.75834 0.603125 
54 67 2 -16.0863 -30.7985 16.3982 
56 29 4 -16.4488 -33.6422 17.4383 
55 15 3 -14.437 -28.674 16.3863 
66 67 2 -4.41782 -25.7289 10.7207 
67 15 3 -6.19507 -23.7301 10.4381 
68 29 4 -1.77169 -26.5212 12.0131 
5 86.8 1 -0.51482 -13.8703 11.0869 
11 86.8 1 26.3929 -12.3701 14.9612 
72 67 2 -17.7627 7.00302 12.3513 
73 15 3 -15.219 7.60558 11.7188 
74 29 4 -19.5802 4.83975 13.499 
46 15 3 -20.9638 11.0668 10.8516 
45 67 2 -19.2074 11.3124 12.8738 
47 29 4 -17.1038 13.1386 14.1147 
8 86.8 1 -17.965 -21.7046 22.792 
42 67 2 -1.18963 -27.4935 29.6459 
43 15 3 -3.64682 -27.1452 28.6093 
12 86.8 1 8.19556 -12.0217 26.7095 
22 15 3 -37.7019 -3.17006 29.0286 
63 67 2 10.5597 9.82188 24.8149 
65 29 4 10.8642 6.90589 23.9757 
64 15 3 11.8501 11.936 25.8634 
19 86.8 1 -6.79351 -30.4279 34.6625 
44 29 4 0.518192 -29.307 31.405 
21 67 2 -38.1042 -3.11169 31.6873 
23 29 4 -39.7893 -4.25119 33.9593 
75 67 2 -1.49285 -2.96744 30.312 
76 15 3 -3.43964 -1.11907 30.1466 
77 29 4 -0.737055 -5.66155 31.5247 
13 86.8 1 18.8543 7.20412 39.2074 
41 29 4 -33.8463 19.7764 39.375 
57 67 2 2.67953 23.1166 38.6166 
59 29 4 4.49845 22.5236 36.2418 
27 67 2 -14.0447 34.5651 35.9528 
28 15 3 -14.3118 35.0709 33.3247 
29 29 4 -14.9328 35.4269 38.74 
ITEM: TIMESTEP
2000
ITEM: NUMBER OF ATOMS
80
ITEM: BOX BOUNDS pp pp pp
-3.8809241192414078e+01 3.8809241192414078e+01
-3.8809241192414078e+01 3.8809241192414078e+01
-3.8809241192414078e+01 3.8809241192414078e+01
ITEM: ATOMS id mass type x y z 
78 67 2 -38.6057 -31.6328 -37.5267 
79 15 3 -36.9055 -29.9101 -38.699 
80 29 4 38.0524 -32.7422 -34.851 
61 15 3 18.54 -17.0428 -31.52 
62 29 4 15.1037 -13.4015 -33.6858 
60 67 2 17.6057 -14.7773 -32.6282 
30 67 2 27.0313 -14.8235 -36.0563 
31 15 3 26.2031 -12.9668 -37.815 
32 29 4 29.4887 -16.1607 -34.8642 
15 86.8 1 -10.7742 -0.243007 -35.9516 
40 15 3 -27.9821 18.3356 -37.674 
39 67 2 -30.1672 19.671 -38.4953 
36 67 2 -27.6344 26.741 -34.3343 
37 15 3 -26.3193 24.4336 -33.9178 
17 86.8 1 -5.49704 22.5445 -30.661 
58 15 3 2.13584 21.6605 -37.7279 
38 29 4 -27.6535 29.3127 -35.9923 
4 86.8 1 -0.761184 30.5674 -37.4858 
9 86.8 1 28.1647 -32.3785 -20.665 
20 86.8 1 27.7369 -12.628 -26.7434 
50 29 4 -4.59845 -0.802691 -17.7622 
3 86.8 1 -35.84 13.8527 -18.8714 
33 67 2 8.92437 -32.9219 -9.9009 
35 29 4 6.4677 -33.4509 -11.6238 
34 15 3 11.3338 -33.8826 -9.20354 
70 15 3 -1.20921 -7.20805 -5.70418 
69 67 2 0.81519 -8.94163 -5.5377 
6 86.8 1 23.2889 -12.3839 -14.2347 
48 67 2 -5.18864 1.66131 -16.0718 
49 15 3 -4.14962 3.33379 -14.2363 
18 86.8 1 -26.2888 9.26821 -9.60281 
2 86.8 1 7.03946 31.9987 -7.3551 
1 86.8 1 -37.9448 -18.5593 0.982427 
16 86.8 1 -7.70133 -8.52101 0.424189 
24 67 2 2.283 -11.8204 -3.34878 
25 15 3 4.64307 -11.5557 -4.60712 
26 29 4 0.53143 -13.6212 -1.65236 
71 29 4 2.02942 -11.0633 -3.83191 
51 67 2 15.5279 -10.6862 -3.80544 
53 29 4 12.8916 -12.134 -3.29591 
52 15 3 18.2006 -10.9654 -4.00685 
7 86.8 1 21.7189 5.3908 -5.45849 
54 67 2 -15.5614 -29.8685 15.7847 
14 86.8 1 4.11129 -36.5838 9.24394 
55 15 3 -14.5529 -27.4085 16.1839 
67 15 3 -5.88565 -22.9568 9.67731 
66 67 2 -4.2692 -24.9888 10.3833 
68 29 4 -1.65565 -25.7562 11.7616 
5 86.8 1 -0.506957 -13.7461 10.726 
11 86.8 1 25.5076 -11.841 14.736 
10 86.8 1 -19.3369 -4.88587 7.52816 
74 29 4 -19.2684 4.85525 13.5223 
72 67 2 -17.3924 6.63556 11.9127 
46 15 3 -19.6639 10.5795 9.97121 
45 67 2 -18.5962 11.1426 12.3727 
73 15 3 -14.8263 7.13693 11.2838 
47 29 4 -16.5594 12.8848 13.8333 
56 29 4 -15.821 -32.6585 16.9728 
8 86.8 1 -17.2354 -21.3248 21.8258 
43 15 3 -3.37998 -26.1245 27.4013 
12 86.8 1 8.10779 -11.3745 26.0008 
63 67 2 10.3921 9.6823 23.856 
65 29 4 10.6172 6.7314 23.1367 
64 15 3 11.2058 11.5758 25.5897 
19 86.8 1 -6.58827 -29.4916 33.672 
44 29 4 0.657131 -28.4698 30.2439 
42 67 2 -1.05663 -26.4616 28.718 
22 15 3 -36.9104 -2.70138 28.0907 
21 67 2 -36.9881 -3.15994 30.7449 
23 29 4 -38.7587 -4.01402 33.075 
75 67 2 -1.433 -2.73231 29.5125 
76 15 3 -3.59317 -1.20909 29.0041 
77 29 4 -0.534792 -5.5126 30.3684 
13 86.8 1 18.0998 6.85414 37.8867 
41 29 4 -32.9987 19.3442 38.045 
57 67 2 2.64554 22.3457 37.3401 
59 29 4 4.57446 21.9686 35.0164 
27 67 2 -13.6291 33.3483 34.7871 
28 15 3 -14.2055 33.6372 32.1749 
29 29 4 -14.4563 34.1179 37.6215 
ITEM: TIMESTEP
4000
ITEM: NUMBER OF ATOMS
80
ITEM: BOX BOUNDS pp pp pp
-3.5610383845752779e+01 3.5610383845752779e+01
-3.5610383845752779e+01 3.5610383845752779e+01
-3.5610383845752779e+01 3.5610383845752779e+01
ITEM: ATOMS id mass type x y z 
78 67 2 -35.4342 -28.7927 -34.4887 
79 15 3 -33.4812 -27.3017 -35.5706 
80 29 4 34.7952 -30.0609 -31.9074 
61 15 3 17.2765 -15.7255 -28.7673 
62 29 4 13.6493 -12.2941 -30.9654 
60 67 2 16.2314 -13.5512 -29.9549 
30 67 2 24.8052 -13.5514 -32.8558 
31 15 3 23.9306 -11.862 -34.7571 
32 29 4 27.2654 -14.9851 -31.7707 
15 86.8 1 -10.0697 -0.216969 -32.9108 
40 15 3 -25.5812 16.6791 -34.5661 
39 67 2 -27.715 18.0761 -35.4123 
36 67 2 -25.3526 24.4426 -31.581 
37 15 3 -23.8272 22.3823 -30.8043 
17 86.8 1 -5.17075 20.6189 -28.0577 
58 15 3 2.08266 20.0974 -34.3312 
38 29 4 -25.3134 27.1715 -32.9142 
4 86.8 1 -0.603028 28.0749 -34.5026 
9 86.8 1 25.803 -29.8032 -18.9489 
20 86.8 1 25.3184 -11.6967 -24.705 
50 29 4 -4.27353 -0.864532 -16.4236 
3 86.8 1 -32.9659 12.7232 -17.3793 
33 67 2 8.28813 -30.3082 -9.06208 
35 29 4 5.83823 -30.8518 -10.7873 
34 15 3 10.6272 -31.3238 -8.22541 
6 86.8 1 21.3995 -11.355 -12.9782 
48 67 2 -4.74374 1.6467 -14.7723 
49 15 3 -3.82757 3.09456 -12.6974 
18 86.8 1 -24.0441 8.59314 -8.73167 
2 86.8 1 6.42913 29.6084 -6.76048 
1 86.8 1 -34.775 -17.0294 0.988543 
16 86.8 1 -6.87264 -7.84299 0.202785 
70 15 3 -1.37077 -6.41317 -4.74873 
69 67 2 0.725073 -8.05549 -5.07901 
24 67 2 1.75575 -10.9364 -2.92119 
25 15 3 4.00334 -10.2804 -4.2564 
26 29 4 0.520374 -12.9547 -0.993851 
71 29 4 2.32835 -10.2481 -3.67832 
51 67 2 14.2513 -9.71842 -3.45237 
53 29 4 11.6119 -11.1301 -2.91827 
52 15 3 16.8852 -10.0971 -3.86068 
7 86.8 1 20.0439 4.98172 -5.0766 
54 67 2 -14.2324 -27.3112 14.4316 
14 86.8 1 3.70082 -33.7213 8.58338 
55 15 3 -13.8653 -24.7144 15.0236 
67 15 3 -5.34716 -20.8561 8.54135 
66 67 2 -3.91665 -22.9199 9.49708 
68 29 4 -1.33445 -23.686 10.9109 
5 86.8 1 -0.466054 -12.8443 9.79164 
11 86.8 1 23.3333 -10.7529 13.6887 
10 86.8 1 -17.7634 -4.52728 7.03202 
74 29 4 -17.9386 4.37968 12.7145 
72 67 2 -16.0216 5.84859 10.8583 
46 15 3 -17.7922 9.75751 8.70092 
45 67 2 -17.0978 10.4244 11.2047 
73 15 3 -13.4375 6.12081 10.1681 
47 29 4 -15.1202 12.0267 12.8714 
56 29 4 -14.4814 -30.1028 15.6258 
8 86.8 1 -15.6649 -19.8024 19.8103 
43 15 3 -3.21684 -23.7589 24.9426 
12 86.8 1 7.51826 -10.2265 23.9445 
63 67 2 9.68457 9.00035 21.7934 
65 29 4 9.77366 6.05064 21.0536 
64 15 3 10.0541 10.7577 23.7993 
19 86.8 1 -5.99469 -27.0291 30.8601 
44 29 4 0.770286 -26.2315 27.7215 
42 67 2 -0.951642 -24.1392 26.3401 
77 29 4 -0.251408 -5.20853 27.7476 
22 15 3 -33.9941 -2.19783 25.5984 
21 67 2 -33.9617 -2.9967 28.1696 
75 67 2 -1.33031 -2.42589 27.1545 
76 15 3 -3.52307 -1.04883 26.4201 
23 29 4 35.5092 -3.64085 30.572 
13 86.8 1 16.4677 6.20215 34.6344 
41 29 4 -30.5592 17.8355 34.7525 
57 67 2 2.41572 20.4843 34.2485 
59 29 4 4.4066 20.2621 31.9542 
27 67 2 -12.4533 30.4655 31.846 
28 15 3 -13.1998 30.6569 29.2723 
29 29 4 -13.2276 31.1857 34.6983 
ITEM: TIMESTEP
6000
ITEM: NUMBER OF ATOMS
80
ITEM: BOX BOUNDS pp pp pp
-3.0949484240838334e+01 3.0949484240838334e+01
-3.0949484240838334e+01 3.0949484240838334e+01
-3.0949484240838334e+01 3.0949484240838334e+01
ITEM: ATOMS id mass type x y z 
78 67 2 -30.8029 -24.8703 -30.0322 
80 29 4 30.0649 -26.2253 -27.502 
61 15 3 15.2938 -13.8521 -24.6907 
62 29 4 11.5712 -10.576 -27.0022 
60 67 2 14.1957 -11.7731 -26.003 
30 67 2 21.5413 -11.7176 -28.3874 
32 29 4 23.9848 -13.1963 -27.3027 
15 86.8 1 -8.84831 -0.181402 -28.5812 
31 15 3 20.6566 -10.0898 -30.3423 
20 86.8 1 21.8983 -10.2647 -21.7121 
40 15 3 -22.0006 14.2202 -29.9562 
39 67 2 -24.089 15.6812 -30.8203 
37 15 3 -20.4549 19.2901 -26.3114 
17 86.8 1 -4.58313 17.8575 -24.3701 
58 15 3 1.73818 17.7236 -29.3932 
36 67 2 -21.9989 21.1758 -27.4368 
38 29 4 -22.0229 23.9946 -28.592 
4 86.8 1 -0.459875 24.3821 -30.1121 
9 86.8 1 22.4024 -25.9623 -16.4924 
50 29 4 -3.74419 -0.981001 -14.4941 
6 86.8 1 18.55 -9.871 -11.1987 
48 67 2 -4.1456 1.55615 -12.8474 
49 15 3 -3.31822 2.91593 -10.6735 
3 86.8 1 -28.6983 11.0916 -15.192 
33 67 2 7.30405 -26.4219 -7.83232 
35 29 4 4.83913 -26.9599 -9.55229 
34 15 3 9.59161 -27.48 -6.89547 
26 29 4 0.38534 -11.54 -0.461688 
70 15 3 -1.60919 -5.33031 -3.98856 
69 67 2 0.588112 -6.87594 -4.26882 
24 67 2 1.37355 -9.43125 -2.44431 
25 15 3 3.52308 -8.57959 -3.86475 
71 29 4 1.957 -9.44572 -3.24028 
53 29 4 9.86663 -9.76574 -2.42581 
51 67 2 12.5053 -8.35114 -2.99649 
52 15 3 15.1088 -8.75778 -3.55643 
18 86.8 1 -20.8091 7.52342 -7.51806 
7 86.8 1 17.4537 4.34135 -4.43956 
2 86.8 1 5.5659 25.9152 -5.89303 
14 86.8 1 3.14543 -29.3698 7.53415 
1 86.8 1 -30.1895 -14.8141 0.919309 
67 15 3 -4.72658 -17.7868 7.1396 
66 67 2 -3.42035 -19.8782 8.21453 
68 29 4 -0.850363 -20.6957 9.63623 
5 86.8 1 -0.404284 -11.3426 8.4452 
10 86.8 1 -15.44 -3.88997 6.22998 
16 86.8 1 -5.73441 -6.83911 -0.0226046 
72 67 2 -13.9142 4.82449 9.35682 
46 15 3 -15.5368 8.6515 7.04215 
45 67 2 -14.9447 9.23322 9.5982 
73 15 3 -11.341 4.8263 8.56773 
54 67 2 -12.3496 -23.5778 12.5405 
55 15 3 -12.4492 -20.9674 13.1915 
56 29 4 -12.6009 -26.4151 13.6421 
8 86.8 1 -13.503 -17.4188 17.0537 
11 86.8 1 20.2324 -9.27464 12.0162 
74 29 4 -15.8881 3.55415 11.3081 
63 67 2 8.52174 7.91845 18.9061 
65 29 4 8.53041 4.97524 18.1032 
47 29 4 -12.995 10.7253 11.4083 
79 15 3 -28.7437 -23.4965 30.8167 
19 86.8 1 -5.12983 -23.4591 26.7319 
42 67 2 -0.865154 -20.875 22.9036 
44 29 4 0.866127 -23.0062 24.2306 
43 15 3 -3.1627 -20.4504 21.5665 
22 15 3 -29.5623 -1.70633 21.9007 
21 67 2 -29.5101 -2.65853 24.4209 
77 29 4 0.0520816 -4.81658 24.087 
75 67 2 -1.16599 -2.0536 23.6443 
76 15 3 -3.36541 -0.730753 22.8233 
12 86.8 1 6.55044 -8.74526 20.8932 
23 29 4 30.6787 -3.19035 26.8883 
64 15 3 8.66842 9.61703 20.9932 
13 86.8 1 14.2179 5.34376 29.9959 
41 29 4 -26.9551 15.5377 30.0403 
57 67 2 2.0311 17.8368 29.8309 
59 29 4 4.06141 17.6969 27.5546 
27 67 2 -10.7271 26.3879 27.6148 
28 15 3 -11.5364 26.57 25.0557 
29 29 4 -11.4629 27.0951 30.4884 
ITEM: TIMESTEP
8000
ITEM: NUMBER OF ATOMS
80
ITEM: BOX BOUNDS pp pp pp
-2.6033824641640578e+01 2.6033824641640578e+01
-2.6033824641640578e+01 2.6033824641640578e+01
-2.6033824641640578e+01 2.6033824641640578e+01
ITEM: ATOMS id mass type x y z 
78 67 2 -25.9219 -20.816 -25.3194 
80 29 4 25.0839 -22.2008 -22.8157 
61 15 3 13.143 -11.8549 -20.3371 
62 29 4 9.40505 -8.74316 -22.8126 
60 67 2 12.0403 -9.89656 -21.8098 
30 67 2 18.0883 -9.78562 -23.7253 
32 29 4 20.4967 -11.2598 -22.5932 
31 15 3 17.2538 -8.16439 -25.6969 
20 86.8 1 18.3234 -8.73643 -18.5817 
15 86.8 1 -7.48496 -0.144794 -24.0564 
40 15 3 -18.2223 11.5913 -25.0647 
39 67 2 -20.249 13.1234 -25.9399 
17 86.8 1 -3.9218 14.9618 -20.5274 
58 15 3 1.27278 15.2279 -24.1994 
37 15 3 -16.9695 16.0242 -21.589 
36 67 2 -18.4624 17.7561 -23.0041 
38 29 4 -18.5829 20.616 -24.0887 
4 86.8 1 -0.338583 20.4506 -25.4714 
35 29 4 3.76959 -22.8259 -8.23348 
33 67 2 6.24304 -22.2993 -6.53211 
34 15 3 8.47441 -23.4083 -5.53022 
9 86.8 1 18.8317 -21.8802 -13.9238 
6 86.8 1 15.4973 -8.31188 -9.33512 
50 29 4 -3.16019 -1.1046 -12.4501 
48 67 2 -3.54363 1.44213 -10.8194 
49 15 3 -2.75104 2.75922 -8.61358 
3 86.8 1 -24.1658 9.3805 -12.8904 
18 86.8 1 -17.4032 6.36307 -6.25391 
1 86.8 1 -25.3632 -12.4851 0.817534 
26 29 4 0.123737 -10.0205 0.076695 
16 86.8 1 -4.52186 -5.77241 -0.249868 
69 67 2 0.301174 -5.62775 -3.49697 
24 67 2 1.03478 -7.96326 -1.98771 
25 15 3 3.12288 -7.17687 -3.46975 
71 29 4 1.79043 -8.11524 -2.58777 
53 29 4 8.09385 -8.35535 -1.91844 
51 67 2 10.7179 -6.93163 -2.54156 
52 15 3 13.2909 -7.30203 -3.23254 
70 15 3 -1.91523 -4.14363 -3.18051 
7 86.8 1 14.6606 3.64843 -3.73474 
2 86.8 1 4.66658 21.9501 -4.98171 
54 67 2 -10.4013 -19.6209 10.5921 
55 15 3 -10.7905 -17.062 11.3099 
56 29 4 -10.622 -22.5097 11.5263 
68 29 4 -0.345974 -17.565 8.2769 
14 86.8 1 2.57076 -24.7066 6.39822 
66 67 2 -2.89071 -16.6482 6.86625 
8 86.8 1 -11.2647 -14.8704 14.1896 
67 15 3 -4.13308 -14.5337 5.76552 
5 86.8 1 -0.340925 -9.6991 7.02152 
11 86.8 1 16.9876 -7.75435 10.1988 
10 86.8 1 -12.974 -3.15696 5.36207 
72 67 2 -11.6511 3.78263 7.78362 
73 15 3 -9.14141 3.52621 6.861 
74 29 4 -13.6949 2.64969 9.73548 
65 29 4 7.22382 3.81674 15.0397 
46 15 3 -13.2957 7.50265 5.35309 
45 67 2 -12.6863 7.91297 7.9378 
47 29 4 -10.746 9.31604 9.83131 
79 15 3 -23.8284 -19.484 25.716 
19 86.8 1 -4.20856 -19.6932 22.3511 
42 67 2 -0.806622 -17.484 19.2989 
44 29 4 0.928418 -19.6189 20.6164 
43 15 3 -3.18105 -17.0228 18.1257 
12 86.8 1 5.4784 -7.25006 17.6612 
22 15 3 -24.8501 -1.28487 17.9692 
21 67 2 -24.7958 -2.26747 20.4721 
75 67 2 -0.97397 -1.68635 19.9235 
76 15 3 -3.19676 -0.417827 19.101 
77 29 4 0.32982 -4.41927 20.2633 
13 86.8 1 11.8906 4.47481 25.1367 
23 29 4 25.604 -2.74294 22.9794 
41 29 4 -23.1233 13.0783 25.1125 
57 67 2 1.5956 15.0752 25.2057 
59 29 4 3.65756 14.9685 22.9687 
63 67 2 7.24536 6.74269 15.8909 
64 15 3 7.33578 8.39789 18.0076 
27 67 2 -8.89787 22.1369 23.1771 
28 15 3 -9.70132 22.3601 20.6219 
29 29 4 -9.59341 22.8482 -26.0064 
ITEM: TIMESTEP
10000
ITEM: NUMBER OF ATOMS
80
ITEM: BOX BOUNDS pp pp pp
-2.1837663464766845e+01 2.1837663464766845e+01
-2.1837663464766845e+01 2.1837663464766845e+01
-2.1837663464766845e+01 2.1837663464766845e+01
ITEM: ATOMS id mass type x y z 
78 67 2 -21.7619 -17.3982 -21.2901 
80 29 4 20.834 -18.7736 -18.7918 
9 86.8 1 15.7929 -18.3788 -11.7462 
15 86.8 1 -6.28301 -0.114747 -20.2166 
62 29 4 7.56145 -7.17055 -19.2346 
60 67 2 10.2075 -8.29339 -18.2143 
61 15 3 11.3124 -10.1053 -16.562 
30 67 2 15.1233 -8.1251 -19.7551 
32 29 4 17.5081 -9.58197 -18.5316 
31 15 3 14.3613 -6.48293 -21.7444 
20 86.8 1 15.2846 -7.43733 -15.95 
40 15 3 -14.9874 9.32741 -20.861 
39 67 2 -16.9592 10.9243 -21.753 
37 15 3 -14.0301 13.2346 -17.5712 
36 67 2 -15.4476 14.8512 -19.1865 
38 29 4 -15.6581 17.6923 -20.2683 
17 86.8 1 -3.33263 12.5024 -17.275 
29 29 4 -7.98773 19.2574 -21.386 
4 86.8 1 -0.24736 17.0603 -21.5017 
58 15 3 0.79162 13.1489 -19.7721 
35 29 4 2.83561 -19.282 -7.10466 
33 67 2 5.32739 -18.7765 -5.42061 
34 15 3 7.51592 -19.9334 -4.3686 
50 29 4 -2.65245 -1.21766 -10.7103 
16 86.8 1 -3.44019 -4.8407 -0.474223 
70 15 3 -2.33923 -3.22365 -2.34238 
69 67 2 -0.0468914 -4.52569 -2.85868 
24 67 2 0.816826 -6.75465 -1.58657 
25 15 3 2.92635 -6.09789 -3.12363 
71 29 4 1.676 -6.8944 -2.04887 
53 29 4 6.6267 -7.17306 -1.48367 
51 67 2 9.22097 -5.7237 -2.17073 
6 86.8 1 12.861 -6.98232 -7.7437 
52 15 3 11.7556 -6.05783 -3.00553 
3 86.8 1 -20.2778 7.92676 -10.9343 
18 86.8 1 -14.4946 5.35602 -5.17948 
48 67 2 -3.04322 1.33702 -9.09134 
49 15 3 -2.25589 2.65692 -6.88474 
7 86.8 1 12.2421 3.04575 -3.11527 
2 86.8 1 3.90729 18.5359 -4.20887 
54 67 2 -8.78094 -16.1899 8.99425 
55 15 3 -9.23528 -13.7147 9.94639 
56 29 4 -8.91106 -19.1614 9.67337 
68 29 4 0.079503 -14.9102 7.1052 
66 67 2 -2.43629 -13.8827 5.72044 
67 15 3 -3.62382 -11.7066 4.67692 
14 86.8 1 2.08414 -20.6844 5.41546 
1 86.8 1 -21.2475 -10.5016 0.715449 
26 29 4 -0.18174 -8.68637 0.549257 
5 86.8 1 -0.296698 -8.27256 5.79491 
10 86.8 1 -10.852 -2.48648 4.61577 
11 86.8 1 14.2337 -6.47488 8.6216 
74 29 4 -11.8236 1.8693 8.35653 
46 15 3 -11.4239 6.46635 3.94407 
72 67 2 -9.70781 2.93183 6.43228 
73 15 3 -7.27916 2.45772 5.3773 
45 67 2 -10.762 6.73452 6.53731 
47 29 4 -8.81716 8.07394 8.46622 
79 15 3 -19.6643 -16.0574 21.3672 
8 86.8 1 -9.37024 -12.7184 11.7077 
19 86.8 1 -3.41115 -16.4671 18.5855 
42 67 2 -0.785822 -14.6297 16.2382 
43 15 3 -3.25048 -14.1327 15.2843 
44 29 4 0.971545 -16.7383 17.5665 
22 15 3 -20.8362 -0.976241 14.5862 
21 67 2 -20.7564 -1.92029 17.103 
75 67 2 -0.799257 -1.38759 16.741 
76 15 3 -3.06525 -0.161709 15.9704 
12 86.8 1 4.5281 -6.00394 14.8993 
77 29 4 0.574858 -4.09789 17.0018 
23 29 4 21.2745 -2.36766 19.6326 
65 29 4 6.11292 2.80312 12.4433 
13 86.8 1 9.92586 3.75376 21.003 
63 67 2 6.13209 5.72045 13.333 
64 15 3 6.27133 7.34509 15.4714 
41 29 4 -19.8424 10.97 20.9296 
27 67 2 -7.32665 18.5303 19.4024 
28 15 3 -8.10047 18.829 16.844 
57 67 2 1.19137 12.7383 21.2753 
59 29 4 3.31033 12.6336 19.0831 
ITEM: TIMESTEP
12000
ITEM: NUMBER OF ATOMS
80
ITEM: BOX BOUNDS pp pp pp
-1.8696807494789450e+01 1.8696807494789450e+01
-1.8696807494789450e+01 1.8696807494789450e+01
-1.8696807494789450e+01 1.8696807494789450e+01
ITEM: ATOMS id mass type x y z 
78 67 2 -18.6525 -14.8594 -18.271 
80 29 4 17.6482 -16.2076 -15.766 
9 86.8 1 13.5247 -15.7488 -10.1269 
60 67 2 8.85203 -7.08801 -15.5202 
61 15 3 9.98819 -8.71582 -13.7067 
30 67 2 12.8894 -6.86256 -16.7562 
32 29 4 15.2341 -8.29894 -15.4385 
20 86.8 1 13.0125 -6.48981 -14.0308 
15 86.8 1 -5.36919 -0.0917519 -17.3556 
50 29 4 -2.26926 -1.30379 -9.41024 
48 67 2 -2.67107 1.25179 -7.7979 
62 29 4 6.19365 -6.00765 -16.55 
6 86.8 1 10.8727 -5.98451 -6.53962 
40 15 3 -12.5648 7.63494 -17.688 
39 67 2 -14.4882 9.2732 -18.6075 
3 86.8 1 -17.3553 6.84326 -9.47839 
37 15 3 -11.8422 11.1358 -14.5705 
36 67 2 -13.1988 12.6706 -16.3118 
38 29 4 -13.4705 15.4919 -17.4264 
29 29 4 -6.77389 16.5808 -17.9247 
17 86.8 1 -2.87217 10.674 -14.8583 
4 86.8 1 -0.182999 14.4883 -18.5163 
58 15 3 0.342879 11.6575 -16.5036 
1 86.8 1 -18.167 -9.01868 0.632928 
35 29 4 2.12726 -16.6212 -6.255 
33 67 2 4.63473 -16.1459 -4.58819 
66 67 2 -2.09013 -11.8047 4.86924 
67 15 3 -3.20829 -9.54609 3.93325 
68 29 4 0.389989 -12.9575 6.21385 
14 86.8 1 1.72208 -17.652 4.67418 
26 29 4 -0.389259 -7.61664 0.896492 
5 86.8 1 -0.284502 -7.20141 4.85456 
34 15 3 6.78508 -17.3363 -3.4974 
18 86.8 1 -12.314 4.59584 -4.37418 
10 86.8 1 -9.24473 -1.94859 4.06041 
46 15 3 -10.0228 5.61618 2.90679 
72 67 2 -8.25751 2.31794 5.41458 
45 67 2 -9.32291 5.81157 5.4957 
16 86.8 1 -2.56887 -4.03759 -0.746506 
70 15 3 -2.83762 -2.84645 -1.46166 
69 67 2 -0.443051 -3.78948 -2.23047 
24 67 2 0.72679 -5.84396 -1.31907 
25 15 3 2.90817 -5.31819 -2.80354 
71 29 4 1.61176 -5.97761 -1.72761 
53 29 4 5.53184 -6.27879 -1.16966 
49 15 3 -1.87679 2.59627 -5.60969 
73 15 3 -5.92198 1.68879 4.24028 
51 67 2 8.10787 -4.82512 -1.90522 
52 15 3 10.5696 -5.14334 -2.93713 
7 86.8 1 10.4143 2.58815 -2.64326 
2 86.8 1 3.34574 15.9754 -3.63411 
54 67 2 -7.58624 -13.6515 7.74301 
55 15 3 -7.85983 -11.2346 8.90489 
56 29 4 -7.60719 -16.6489 8.29014 
79 15 3 -16.5662 -13.4942 18.1166 
8 86.8 1 -7.98565 -11.0703 9.91173 
19 86.8 1 -2.80444 -14.0275 15.7404 
42 67 2 -0.799793 -12.5297 13.9682 
43 15 3 -3.33269 -12.0106 13.2331 
44 29 4 1.01484 -14.5899 15.2911 
74 29 4 -10.4284 1.29892 7.29713 
22 15 3 -17.8474 -0.78367 12.0406 
21 67 2 -17.7288 -1.65505 14.5808 
75 67 2 -0.658675 -1.17661 14.3589 
76 15 3 -2.97109 0.0108778 13.6737 
12 86.8 1 3.78887 -5.07768 12.8361 
77 29 4 0.789444 -3.85391 14.53 
65 29 4 5.28279 2.0378 10.5021 
63 67 2 5.28932 4.94068 11.4329 
31 15 3 12.1902 -5.22687 18.621 
11 86.8 1 12.181 -5.52426 7.43237 
23 29 4 18.0392 -2.08305 17.1234 
13 86.8 1 8.46623 3.2252 17.9121 
47 29 4 -7.36222 7.11065 7.43335 
41 29 4 -17.3754 9.39416 17.8159 
28 15 3 -6.88131 16.2182 14.0236 
64 15 3 5.51479 6.53893 13.5826 
27 67 2 -6.14533 15.8371 16.5811 
57 67 2 0.864132 11.006 18.334 
59 29 4 3.0471 10.8914 16.2084 
ITEM: TIMESTEP
14000
ITEM: NUMBER OF ATOMS
80
ITEM: BOX BOUNDS pp pp pp
-1.6216347826626730e+01 1.6216347826626730e+01
-1.6216347826626730e+01 1.6216347826626730e+01
-1.6216347826626730e+01 1.6216347826626730e+01
ITEM: ATOMS id mass type x y z 
78 67 2 -16.2015 -12.861 -15.884 
35 29 4 1.55771 -14.5218 -5.58407 
80 29 4 15.1208 -14.1756 -13.3623 
9 86.8 1 11.739 -13.666 -8.8581 
60 67 2 7.81019 -6.12736 -13.4041 
61 15 3 9.021 -7.52911 -11.4498 
30 67 2 11.1075 -5.82709 -14.2935 
32 29 4 13.4134 -7.28614 -12.9273 
20 86.8 1 11.2073 -5.77637 -12.6047 
15 86.8 1 -4.64464 -0.072852 -15.1053 
50 29 4 -1.9635 -1.37711 -8.38643 
48 67 2 -2.37699 1.18166 -6.77373 
62 29 4 5.11612 -5.1106 -14.4175 
6 86.8 1 9.29618 -5.18876 -5.55643 
40 15 3 -10.6526 6.2966 -15.1527 
39 67 2 -12.5308 7.96794 -16.117 
3 86.8 1 -15.0381 5.99254 -8.34033 
37 15 3 -10.1234 9.47048 -12.1903 
36 67 2 -11.4283 10.9398 -14.032 
38 29 4 -11.7425 13.7476 -15.1898 
29 29 4 -5.80066 14.4636 -15.1807 
17 86.8 1 -2.48802 9.25005 -12.9637 
4 86.8 1 -0.132537 12.4167 -16.1402 
58 15 3 -0.110729 10.5219 -13.9767 
1 86.8 1 -15.7317 -7.84906 0.566779 
33 67 2 4.08399 -14.0794 -3.92887 
66 67 2 -1.79482 -10.1438 4.20822 
67 15 3 -2.79895 -7.78541 3.38373 
14 86.8 1 1.43334 -15.2437 4.09025 
26 29 4 -0.548239 -6.61396 1.09883 
5 86.8 1 -0.313232 -6.36585 4.07026 
53 29 4 4.43748 -5.35939 -1.19102 
34 15 3 6.19866 -15.3076 -2.80202 
18 86.8 1 -10.584 3.99487 -3.73055 
10 86.8 1 -7.95156 -1.48562 3.63062 
46 15 3 -8.91249 4.89119 2.08245 
72 67 2 -7.12058 1.82744 4.60099 
45 67 2 -8.1893 5.0583 4.67117 
16 86.8 1 -2.15836 -3.10635 -1.01378 
70 15 3 -3.09591 -3.10705 -0.479436 
69 67 2 -0.664254 -3.52127 -1.54517 
24 67 2 0.881119 -5.15389 -1.16925 
25 15 3 3.28134 -4.67749 -2.28964 
71 29 4 1.78114 -5.35149 -1.51398 
49 15 3 -1.56251 2.55008 -4.60259 
73 15 3 -4.88014 1.08471 3.30567 
51 67 2 7.19369 -4.14908 -1.69791 
52 15 3 9.50206 -4.46762 -3.0476 
7 86.8 1 8.96343 2.22177 -2.26741 
2 86.8 1 2.90794 13.9644 -3.18482 
54 67 2 -6.60718 -11.6938 6.67576 
55 15 3 -6.84343 -9.2582 7.8004 
56 29 4 -6.59367 -14.6834 7.26697 
79 15 3 -14.1294 -11.4636 15.5464 
8 86.8 1 -6.8981 -9.72393 8.58429 
68 29 4 0.626574 -11.4878 5.49262 
19 86.8 1 -2.31059 -12.0586 13.457 
42 67 2 -0.844517 -10.9099 12.2124 
43 15 3 -3.43502 -10.411 11.676 
44 29 4 1.07806 -12.9079 13.4886 
74 29 4 -9.34805 0.855983 6.44778 
22 15 3 -15.5023 -0.663459 10.0129 
21 67 2 -15.3424 -1.44356 12.585 
75 67 2 -0.529717 -1.02115 12.4848 
76 15 3 -2.905 0.108681 11.9094 
12 86.8 1 3.17033 -4.33524 11.2219 
77 29 4 1.01924 -3.65178 12.5115 
65 29 4 4.62662 1.42609 8.96184 
63 67 2 4.62308 4.31588 9.94567 
31 15 3 10.4451 -4.26808 16.0462 