----- GAMESS execution script 'rungms' -----
This job is running on host node012
under operating system Linux at Tue Apr 2 10:00:39 CEST 2019
Available scratch disk space (Kbyte units) at beginning of the job is
Filesystem     1K-blocks  Used Available Use% Mounted on
/dev/sda3        1998672  3180   1890636   1% /tmp
GAMESS temporary binary files will be written to /tmp
GAMESS supplementary output files will be written to /tmp
Copying input file gms_bf4_STO_B3LYP_ENE_ZMAT_MP2.inp to your run's scratch directory...
cp gms_bf4_STO_B3LYP_ENE_ZMAT_MP2.inp /tmp/gms_bf4_STO_B3LYP_ENE_ZMAT_MP2.F05
unset echo
 
Assuming a single but multicore node.
 
/home/mdi0316/CODES/gamess_sockets/ddikick.x /home/mdi0316/CODES/gamess_sockets/gamess.00.x gms_bf4_STO_B3LYP_ENE_ZMAT_MP2 -ddi 1 16 node012:cpus=16 -scr /tmp

 Distributed Data Interface kickoff program.
 Initiating 16 compute processes on 1 nodes to run the following command:
 /home/mdi0316/CODES/gamess_sockets/gamess.00.x gms_bf4_STO_B3LYP_ENE_ZMAT_MP2 

          ******************************************************
          *         GAMESS VERSION = 14 FEB 2018 (R1)         *
          *             FROM IOWA STATE UNIVERSITY             *
          * M.W.SCHMIDT, K.K.BALDRIDGE, J.A.BOATZ, S.T.ELBERT, *
          *   M.S.GORDON, J.H.JENSEN, S.KOSEKI, N.MATSUNAGA,   *
          *          K.A.NGUYEN, S.J.SU, T.L.WINDUS,           *
          *       TOGETHER WITH M.DUPUIS, J.A.MONTGOMERY       *
          *         J.COMPUT.CHEM.  14, 1347-1363(1993)        *
          **************** 64 BIT LINUX VERSION ****************

  SINCE 1993, STUDENTS AND POSTDOCS WORKING AT IOWA STATE UNIVERSITY
  AND ALSO IN THEIR VARIOUS JOBS AFTER LEAVING ISU HAVE MADE IMPORTANT
  CONTRIBUTIONS TO THE CODE:
     IVANA ADAMOVIC, CHRISTINE AIKENS, YURI ALEXEEV, POOJA ARORA,
     ANDREY ASADCHEV, ROB BELL, PRADIPTA BANDYOPADHYAY, JONATHAN BENTZ,
     BRETT BODE, KURT BRORSEN, CALEB CARLIN, GALINA CHABAN, WEI CHEN,
     CHEOL HO CHOI, PAUL DAY, ALBERT DEFUSCO, NUWAN DESILVA, TIM DUDLEY,
     DMITRI FEDOROV, ALEX FINDLATER, GRAHAM FLETCHER, MARK FREITAG,
     KURT GLAESEMANN, ANASTASIA GUININA,
     DAN KEMP, GRANT MERRILL, NORIYUKI MINEZAWA, JONATHAN MULLIN,
     TAKESHI NAGATA, SEAN NEDD, HEATHER NETZLOFF, BOSILJKA NJEGIC, RYAN OLSON,
     MIKE PAK, BUU PHAM,
     SPENCER PRUITT, LUKE ROSKOP, JIM SHOEMAKER, LYUDMILA SLIPCHENKO,
     TONY SMITH, SAROM SOK LEANG, JIE SONG, TETSUYA TAKETSUGU, SIMON WEBB,
     PENG XU, SOOHAENG YOO, FEDERICO ZAHARIEV

  ADDITIONAL CODE HAS BEEN PROVIDED BY COLLABORATORS IN OTHER GROUPS:
     IOWA STATE UNIVERSITY:
          JOE IVANIC, AARON WEST, LAIMUTIS BYTAUTAS, KLAUS RUEDENBERG
     UNIVERSITY OF TOKYO: KIMIHIKO HIRAO, TAKAHITO NAKAJIMA,
          TAKAO TSUNEDA, MUNEAKI KAMIYA, SUSUMU YANAGISAWA,
          KIYOSHI YAGI, MAHITO CHIBA, SEIKEN TOKURA, NAOAKI KAWAKAMI
     UNIVERSITY OF AARHUS: FRANK JENSEN
     UNIVERSITY OF IOWA: VISVALDAS KAIRYS, HUI LI
     NATIONAL INST. OF STANDARDS AND TECHNOLOGY: WALT STEVENS, DAVID GARMER
     UNIVERSITY OF PISA: BENEDETTA MENNUCCI, JACOPO TOMASI
     UNIVERSITY OF MEMPHIS: HENRY KURTZ, PRAKASHAN KORAMBATH
     UNIVERSITY OF ALBERTA: TOBY ZENG, MARIUSZ KLOBUKOWSKI
     UNIVERSITY OF NEW ENGLAND: MARK SPACKMAN
     MIE UNIVERSITY: HIROAKI UMEDA
     NAT. INST. OF ADVANCED INDUSTRIAL SCIENCE AND TECHNOLOGY: KAZUO KITAURA
     MICHIGAN STATE UNIVERSITY:
          KAROL KOWALSKI, MARTA WLOCH, JEFFREY GOUR, JESSE LUTZ,
          WEI LI, PIOTR PIECUCH
     UNIVERSITY OF SILESIA: MONIKA MUSIAL, STANISLAW KUCHARSKI
     FACULTES UNIVERSITAIRES NOTRE-DAME DE LA PAIX:
          OLIVIER QUINET, BENOIT CHAMPAGNE
     UNIVERSITY OF CALIFORNIA - SANTA BARBARA: BERNARD KIRTMAN
     INSTITUTE FOR MOLECULAR SCIENCE:
          KAZUYA ISHIMURA, MICHIO KATOUDA, AND SHIGERU NAGASE
     UNIVERSITY OF NOTRE DAME: ANNA POMOGAEVA, DAN CHIPMAN
     KYUSHU UNIVERSITY:
          HARUYUKI NAKANO,
          FENG LONG GU, JACEK KORCHOWIEC, MARCIN MAKOWSKI, AND YURIKO AOKI,
          HIROTOSHI MORI AND EISAKU MIYOSHI
     PENNSYLVANIA STATE UNIVERSITY:
          TZVETELIN IORDANOV, CHET SWALINA, JONATHAN SKONE,
          SHARON HAMMES-SCHIFFER
     WASEDA UNIVERSITY:
          MASATO KOBAYASHI, TOMOKO AKAMA, TSUGUKI TOUMA,
          TAKESHI YOSHIKAWA, YASUHIRO IKABATA, JUNJI SEINO,
          YUYA NAKAJIMA, HIROMI NAKAI
     NANJING UNIVERSITY: SHUHUA LI
     UNIVERSITY OF NEBRASKA:
          PEIFENG SU, DEJUN SI, NANDUN THELLAMUREGE, YALI WANG, HUI LI
     UNIVERSITY OF ZURICH: ROBERTO PEVERATI, KIM BALDRIDGE
     N. COPERNICUS UNIVERSITY AND JACKSON STATE UNIVERSITY:
          MARIA BARYSZ
     UNIVERSITY OF COPENHAGEN: Jimmy Kromann, CASPER STEINMANN
     TOKYO INSTITUTE OF TECHNOLOGY: HIROYA NAKATA
     NAGOYA UNIVERSITY: YOSHIO NISHIMOTO, STEPHAN IRLE
     MOSCOW STATE UNIVERSITY: VLADIMIR MIRONOV


 PARALLEL VERSION RUNNING ON       16 PROCESSORS IN        1 NODES.

 EXECUTION OF GAMESS BEGUN Tue Apr  2 10:00:41 2019

            ECHO OF THE FIRST FEW INPUT CARDS -
 INPUT CARD> $CONTRL                                                                        
 INPUT CARD>  SCFTYP=RHF                                                                    
 INPUT CARD>  EXETYP=RUN                                                                    
 INPUT CARD>  RUNTYP=ENERGY                                                                 
 INPUT CARD>  MOLPLT=.T.                                                                    
 INPUT CARD>  NOSYM=1                                                                       
 INPUT CARD>  MAXIT=200                                                                     
 INPUT CARD>  ICHARG=-1                                                                     
 INPUT CARD>  MULT=1                                                                        
 INPUT CARD>  AIMPAC=.T.                                                                    
 INPUT CARD>  QMTTOL=1e-08                                                                  
 INPUT CARD>  COORD=ZMT                                                                     
 INPUT CARD>  NZVAR=9                                                                       
 INPUT CARD>  MPLEVL=2                                                                      
 INPUT CARD> $END                                                                           
 INPUT CARD> $SYSTEM                                                                        
 INPUT CARD>  MWORDS=4                                                                      
 INPUT CARD>  MEMDDI=256                                                                    
 INPUT CARD> $END                                                                           
 INPUT CARD> $SCF                                                                           
 INPUT CARD>  DIRSCF=.T.                                                                    
 INPUT CARD>  NCONV=5                                                                       
 INPUT CARD>  DIIS=.T.                                                                      
 INPUT CARD>  DAMP=.T.                                                                      
 INPUT CARD> $END                                                                           
 INPUT CARD> $BASIS                                                                         
 INPUT CARD>  GBASIS=STO                                                                    
 INPUT CARD>  NDFUNC=1                                                                      
 INPUT CARD>  NPFUNC=1                                                                      
 INPUT CARD>  DIFFSP=.T.                                                                    
 INPUT CARD>  DIFFS=.T.                                                                     
 INPUT CARD>  NGAUSS=6                                                                      
 INPUT CARD>  POLAR=COMMON                                                                  
 INPUT CARD> $END                                                                           
 INPUT CARD> $DATA                                                                          
 INPUT CARD>new.run                                                                         
 INPUT CARD>C1                                                                              
 INPUT CARD> b                                                                              
 INPUT CARD> f  1    ff1                                                                    
 INPUT CARD> f  1    ff2         2    fff2                                                  
 INPUT CARD> f  1    ff3         2    fff3        3    dih3                                 
 INPUT CARD> f  1    ff4         2    fff4        3    dih4                                 
 INPUT CARD>                                                                                
 INPUT CARD>ff1              1.4407773                                                      
 INPUT CARD>ff2              1.4407524                                                      
 INPUT CARD>fff2             109.4912681                                                    
 INPUT CARD>ff3              1.4406660                                                      
 INPUT CARD>fff3             109.4817228                                                    
 INPUT CARD>dih3             119.9989099                                                    
 INPUT CARD>ff4              1.4406637                                                      
    4000000 WORDS OF MEMORY AVAILABLE

     BASIS OPTIONS
     -------------
     GBASIS=STO          IGAUSS=       6      POLAR=COMMON  
     NDFUNC=       1     NFFUNC=       0     DIFFSP=       T
     NPFUNC=       1      DIFFS=       T     BASNAM=        


     RUN TITLE
     ---------
 new.run                                                                         

 THE POINT GROUP OF THE MOLECULE IS C1      
 THE ORDER OF THE PRINCIPAL AXIS IS     0

 YOUR FULLY SUBSTITUTED Z-MATRIX IS
 B   
 F      1   1.4407773
 F      1   1.4407524  2  109.4913
 F      1   1.4406660  2  109.4817  3  119.9989  0
 F      1   1.4406637  2  109.4818  3 -119.9991  0

 THE MOMENTS OF INERTIA ARE (AMU-ANGSTROM**2)
 IXX=   105.136   IYY=   105.167   IZZ=   105.171

 ATOM      ATOMIC                      COORDINATES (BOHR)
           CHARGE         X                   Y                   Z
 B           5.0    -0.0003641439        0.0000020207        0.0000566072
 F           9.0    -2.6665938564        0.0024119371        0.5515715127
 F           9.0     1.4091477237        0.0131483885        2.3293918391
 F           9.0     0.6293483983       -2.2305057788       -1.4282666026
 F           9.0     0.6283087506        2.2149442823       -1.4527295522

          INTERNUCLEAR DISTANCES (ANGS.)
          ------------------------------

                1 B          2 F          3 F          4 F          5 F     

   1 B       0.0000000    1.4407773 *  1.4407524 *  1.4406660 *  1.4406637 *
   2 F       1.4407773 *  0.0000000    2.3530502 *  2.3528411 *  2.3528404 *
   3 F       1.4407524 *  2.3530502 *  0.0000000    2.3524335 *  2.3524329 *
   4 F       1.4406660 *  2.3528411 *  2.3524335 *  0.0000000    2.3524667 *
   5 F       1.4406637 *  2.3528404 *  2.3524329 *  2.3524667 *  0.0000000  

  * ... LESS THAN  3.000


     ATOMIC BASIS SET
     ----------------
 THE CONTRACTED PRIMITIVE FUNCTIONS HAVE BEEN UNNORMALIZED
 THE CONTRACTED BASIS FUNCTIONS ARE NOW NORMALIZED TO UNITY

  SHELL TYPE  PRIMITIVE        EXPONENT          CONTRACTION COEFFICIENT(S)

 B         

      1   S       1           506.0118369    0.009163596281
      1   S       2            92.7767164    0.049361492943
      1   S       3            25.9555819    0.168538304910
      1   S       4             8.9164429    0.370562799722
      1   S       5             3.4625157    0.416491529825
      1   S       6             1.4260552    0.130334084108

      2   L       7            23.1945609   -0.013252788090    0.003759696623
      2   L       8             4.5908089   -0.046991710139    0.037679369843
      2   L       9             1.4268200   -0.033785371509    0.173896743514
      2   L      10             0.5489491    0.250241786092    0.418036434734
      2   L      11             0.2384090    0.595117252581    0.425859547735
      2   L      12             0.1092803    0.240706176292    0.101708295508

      3   L      13             0.0315000    1.000000000000    1.000000000000

 F         

      4   S      14          1728.6265737    0.009163596281
      4   S      15           316.9417900    0.049361492943
      4   S      16            88.6688914    0.168538304910
      4   S      17            30.4601573    0.370562799722
      4   S      18            11.8285704    0.416491529825
      4   S      19             4.8716585    0.130334084108

      5   L      20            67.0322809   -0.013252788090    0.003759696623
      5   L      21            13.2674378   -0.046991710139    0.037679369843
      5   L      22             4.1235098   -0.033785371509    0.173896743514
      5   L      23             1.5864628    0.250241786092    0.418036434734
      5   L      24             0.6890019    0.595117252581    0.425859547735
      5   L      25             0.3158200    0.240706176292    0.101708295508

      6   L      26             0.1076000    1.000000000000    1.000000000000

 F         

      7   S      27          1728.6265737    0.009163596281
      7   S      28           316.9417900    0.049361492943
      7   S      29            88.6688914    0.168538304910
      7   S      30            30.4601573    0.370562799722
      7   S      31            11.8285704    0.416491529825
      7   S      32             4.8716585    0.130334084108

      8   L      33            67.0322809   -0.013252788090    0.003759696623
      8   L      34            13.2674378   -0.046991710139    0.037679369843
      8   L      35             4.1235098   -0.033785371509    0.173896743514
      8   L      36             1.5864628    0.250241786092    0.418036434734
      8   L      37             0.6890019    0.595117252581    0.425859547735
      8   L      38             0.3158200    0.240706176292    0.101708295508

      9   L      39             0.1076000    1.000000000000    1.000000000000

 F         

     10   S      40          1728.6265737    0.009163596281
     10   S      41           316.9417900    0.049361492943
     10   S      42            88.6688914    0.168538304910
     10   S      43            30.4601573    0.370562799722
     10   S      44            11.8285704    0.416491529825
     10   S      45             4.8716585    0.130334084108

     11   L      46            67.0322809   -0.013252788090    0.003759696623
     11   L      47            13.2674378   -0.046991710139    0.037679369843
     11   L      48             4.1235098   -0.033785371509    0.173896743514
     11   L      49             1.5864628    0.250241786092    0.418036434734
     11   L      50             0.6890019    0.595117252581    0.425859547735
     11   L      51             0.3158200    0.240706176292    0.101708295508

     12   L      52             0.1076000    1.000000000000    1.000000000000

 F         

     13   S      53          1728.6265737    0.009163596281
     13   S      54           316.9417900    0.049361492943
     13   S      55            88.6688914    0.168538304910
     13   S      56            30.4601573    0.370562799722
     13   S      57            11.8285704    0.416491529825
     13   S      58             4.8716585    0.130334084108

     14   L      59            67.0322809   -0.013252788090    0.003759696623
     14   L      60            13.2674378   -0.046991710139    0.037679369843
     14   L      61             4.1235098   -0.033785371509    0.173896743514
     14   L      62             1.5864628    0.250241786092    0.418036434734
     14   L      63             0.6890019    0.595117252581    0.425859547735
     14   L      64             0.3158200    0.240706176292    0.101708295508

     15   L      65             0.1076000    1.000000000000    1.000000000000

 TOTAL NUMBER OF BASIS SET SHELLS             =   15
 NUMBER OF CARTESIAN GAUSSIAN BASIS FUNCTIONS =   45
 NUMBER OF ELECTRONS                          =   42
 CHARGE OF MOLECULE                           =   -1
 SPIN MULTIPLICITY                            =    1
 NUMBER OF OCCUPIED ORBITALS (ALPHA)          =   21
 NUMBER OF OCCUPIED ORBITALS (BETA )          =   21
 TOTAL NUMBER OF ATOMS                        =    5
 THE NUCLEAR REPULSION ENERGY IS      175.4281494138

     $CONTRL OPTIONS
     ---------------
 SCFTYP=RHF          RUNTYP=ENERGY       EXETYP=RUN     
 MPLEVL=       2     CITYP =NONE         CCTYP =NONE         VBTYP =NONE    
 DFTTYP=NONE         TDDFT =NONE    
 MULT  =       1     ICHARG=      -1     NZVAR =       9     COORD =ZMT     
 PP    =NONE         RELWFN=NONE         LOCAL =NONE         NUMGRD=       F
 ISPHER=      -1     NOSYM =       1     MAXIT =     200     UNITS =ANGS    
 PLTORB=       F     MOLPLT=       T     AIMPAC=       T     FRIEND=        
 NPRINT=       7     IREST =       0     GEOM  =INPUT   
 NORMF =       0     NORMP =       0     ITOL  =      20     ICUT  =       9
 INTTYP=BEST         GRDTYP=BEST         QMTTOL= 1.0E-08

     $SYSTEM OPTIONS
     ---------------
  REPLICATED MEMORY=     4000000 WORDS (ON EVERY NODE).
 DISTRIBUTED MEMDDI=         256 MILLION WORDS IN AGGREGATE,
 MEMDDI DISTRIBUTED OVER  16 PROCESSORS IS    16000000 WORDS/PROCESSOR.
 TOTAL MEMORY REQUESTED ON EACH PROCESSOR=    20000000 WORDS.
 TIMLIM=      525600.00 MINUTES, OR     365.0 DAYS.
 PARALL= T  BALTYP=  DLB     KDIAG=    0  COREFL= F
 MXSEQ2=     300 MXSEQ3=     150  mem10=         0

          ----------------
          PROPERTIES INPUT
          ----------------

     MOMENTS            FIELD           POTENTIAL          DENSITY
 IEMOM =       1   IEFLD =       0   IEPOT =       0   IEDEN =       0
 WHERE =COMASS     WHERE =NUCLEI     WHERE =NUCLEI     WHERE =NUCLEI  
 OUTPUT=BOTH       OUTPUT=BOTH       OUTPUT=BOTH       OUTPUT=BOTH    
 IEMINT=       0   IEFINT=       0                     IEDINT=       0
                                                       MORB  =       0
          EXTRAPOLATION IN EFFECT
          DAMPING IN EFFECT
          DIIS IN EFFECT
 ORBITAL PRINTING OPTION: NPREO=     1    45     2     1

     -------------------------------
     INTEGRAL TRANSFORMATION OPTIONS
     -------------------------------
     NWORD  =            0
     CUTOFF = 1.0E-09     MPTRAN =       0
     DIRTRF =       T     AOINTS =DUP     

          ----------------------
          INTEGRAL INPUT OPTIONS
          ----------------------
 NOPK  =       1 NORDER=       0 SCHWRZ=       T

          -----------------------
          MP2 CONTROL INFORMATION
          -----------------------
          NACORE =        5  NBCORE =        5
          LMOMP2 =        F  AOINTS = DUP     
          METHOD =        2  NWORD  =               0
          MP2PRP =        F  OSPT   = NONE    
          CUTOFF = 1.00E-09  CPHFBS = BASISAO 
          CODE   = DDI     

          NUMBER OF CORE -A-  ORBITALS =     5
          NUMBER OF CORE -B-  ORBITALS =     5
          NUMBER OF OCC. -A-  ORBITALS =    21
          NUMBER OF OCC. -B-  ORBITALS =    21
          NUMBER OF MOLECULAR ORBITALS =    45
          NUMBER OF   BASIS  FUNCTIONS =    45


   --- ENCODED Z MATRIX ---
 COORD  TYPE   I   J   K   L   M   N
    1      1    2   1
    2      1    3   1
    3      2    3   1   2
    4      1    4   1
    5      2    4   1   2
    6      3    4   1   2   3
    7      1    5   1
    8      2    5   1   2
    9      3    5   1   2   3

 THE DETERMINANT OF THE G MATRIX IS 10**(   -12)

 THE DETERMINANT OF THE G MATRIX IS 10**(   -12)
 * * * WARNING * * *
 YOUR B MATRIX HAS A SMALL DETERMINANT.
 THIS SUGGESTS YOU MAY HAVE BADLY CHOSEN COORDINATES.


                     --------------------
                     INTERNAL COORDINATES
                     --------------------

                 - - ATOMS - -         COORDINATE      COORDINATE
 NO.   TYPE    I  J  K  L  M  N        (BOHR,RAD)       (ANG,DEG)
 ----------------------------------------------------------------
   1 STRETCH   2  1                     2.7226743       1.4407773
   2 STRETCH   3  1                     2.7226273       1.4407524
   3 BEND      3  1  2                  1.9109831     109.4912681
   4 STRETCH   4  1                     2.7224640       1.4406660
   5 BEND      4  1  2                  1.9108165     109.4817228
   6 TORSION   4  1  2  3               2.0943761     119.9989099
   7 STRETCH   5  1                     2.7224596       1.4406637
   8 BEND      5  1  2                  1.9108180     109.4818091
   9 TORSION   5  1  2  3              -2.0943788    -119.9990655

     ------------------------------------------
     THE POINT GROUP IS C1 , NAXIS= 1, ORDER= 1
     ------------------------------------------

     DIMENSIONS OF THE SYMMETRY SUBSPACES ARE
 A   =   45

 ..... DONE SETTING UP THE RUN .....
 CPU     0: STEP CPU TIME=     0.05 TOTAL CPU TIME=          0.0 (      0.0 MIN)
 TOTAL WALL CLOCK TIME=          0.1 SECONDS, CPU UTILIZATION IS    62.50%

          ********************
          1 ELECTRON INTEGRALS
          ********************
 ...... END OF ONE-ELECTRON INTEGRALS ......
 CPU     0: STEP CPU TIME=     0.00 TOTAL CPU TIME=          0.0 (      0.0 MIN)
 TOTAL WALL CLOCK TIME=          0.1 SECONDS, CPU UTILIZATION IS    55.56%

          -------------
          GUESS OPTIONS
          -------------
          GUESS =HUCKEL            NORB  =       0          NORDER=       0
          MIX   =       F          PRTMO =       F          PUNMO =       F
          TOLZ  = 1.0E-08          TOLE  = 1.0E-05
          SYMDEN=       F          PURIFY=       F

 INITIAL GUESS ORBITALS GENERATED BY HUCKEL   ROUTINE.
 HUCKEL GUESS REQUIRES     21270 WORDS.

 SYMMETRIES FOR INITIAL GUESS ORBITALS FOLLOW.   BOTH SET(S).
    21 ORBITALS ARE OCCUPIED (    5 CORE ORBITALS).
     6=A        7=A        8=A        9=A       10=A       11=A       12=A   
    13=A       14=A       15=A       16=A       17=A       18=A       19=A   
    20=A       21=A       22=A       23=A       24=A       25=A       26=A   
    27=A       28=A       29=A       30=A       31=A   
 ...... END OF INITIAL ORBITAL SELECTION ......
 CPU     0: STEP CPU TIME=     0.00 TOTAL CPU TIME=          0.0 (      0.0 MIN)
 TOTAL WALL CLOCK TIME=          0.1 SECONDS, CPU UTILIZATION IS    55.56%

                    ----------------------
                    AO INTEGRAL TECHNOLOGY
                    ----------------------
     S,P,L SHELL ROTATED AXIS INTEGRALS, REPROGRAMMED BY
        KAZUYA ISHIMURA (IMS) AND JOSE SIERRA (SYNSTAR).
     S,P,D,L SHELL ROTATED AXIS INTEGRALS PROGRAMMED BY
        KAZUYA ISHIMURA (INSTITUTE FOR MOLECULAR SCIENCE).
     S,P,D,F,G SHELL TO TOTAL QUARTET ANGULAR MOMENTUM SUM 5,
        ERIC PROGRAM BY GRAHAM FLETCHER (ELORET AND NASA ADVANCED
        SUPERCOMPUTING DIVISION, AMES RESEARCH CENTER).
     S,P,D,F,G,L SHELL GENERAL RYS QUADRATURE PROGRAMMED BY
        MICHEL DUPUIS (PACIFIC NORTHWEST NATIONAL LABORATORY).

          --------------------
          2 ELECTRON INTEGRALS
          --------------------

 DIRECT SCF METHOD SKIPS INTEGRAL STORAGE ON DISK.
 DIRECT TRANSFORMATION SKIPS AO INTEGRAL STORAGE ON DISK.
  ...... END OF TWO-ELECTRON INTEGRALS .....
 CPU     0: STEP CPU TIME=     0.02 TOTAL CPU TIME=          0.1 (      0.0 MIN)
 TOTAL WALL CLOCK TIME=          0.1 SECONDS, CPU UTILIZATION IS    63.64%

          --------------------------
                 RHF SCF CALCULATION
          --------------------------

     NUCLEAR ENERGY =       175.4281494138
     MAXIT =  200     NPUNCH=    2
     EXTRAP=T  DAMP=T  SHIFT=F  RSTRCT=F  DIIS=T  DEM=F  SOSCF=F
     DENSITY MATRIX CONV=  2.00E-05
     MEMORY REQUIRED FOR RHF ITERS=     80041 WORDS.

 DIRECT SCF CALCULATION, SCHWRZ=T   FDIFF=T,  DIRTHR=  0.00E+00 NITDIR=10
 SCHWARZ INEQUALITY OVERHEAD:      1029 INTEGRALS, T=        0.00

                                                                                                                   NONZERO     BLOCKS
 ITER EX DEM     TOTAL ENERGY        E CHANGE  DENSITY CHANGE    DIIS ERROR      VIR. SHIFT       DAMPING        INTEGRALS    SKIPPED
   1  0  0     -420.2844830819  -420.2844830819   0.409313437   0.823193927     0.000000000     1.000000000         524990        705
          * * *   INITIATING DIIS PROCEDURE   * * *
   2  1  0     -421.2677017348    -0.9832186529   0.146413351   0.156655145     0.000000000     1.000000000         524986        715
   3  2  0     -421.3103413095    -0.0426395747   0.030080368   0.026276505     0.000000000     1.000000000         524860        751
   4  3  0     -421.3127518353    -0.0024105258   0.005703751   0.007070627     0.000000000     1.000000000         524818        763
   5  4  0     -421.3128779787    -0.0001261433   0.000831811   0.000389988     0.000000000     1.000000000         524586        778
   6  5  0     -421.3128791711    -0.0000011924   0.000161026   0.000120312     0.000000000     1.000000000         523178        945
   7  6  0     -421.3128792589    -0.0000000879   0.000018126   0.000009789     0.000000000     1.000000000         523041        981
   8  7  0     -421.3128792606    -0.0000000016   0.000005319   0.000001742     0.000000000     1.000000000         513478       1425

          -----------------
          DENSITY CONVERGED
          -----------------
     TIME TO FORM FOCK OPERATORS=       0.0 SECONDS (       0.0 SEC/ITER)
     FOCK TIME ON FIRST ITERATION=       0.0, LAST ITERATION=       0.0
     TIME TO SOLVE SCF EQUATIONS=       0.0 SECONDS (       0.0 SEC/ITER)

 FINAL RHF ENERGY IS     -421.3128792606 AFTER   8 ITERATIONS

          ------------
          EIGENVECTORS
          ------------

                      1          2          3          4          5
                  -26.3474   -26.3473   -26.3473   -26.3473    -7.5776
                     A          A          A          A          A   
    1  B  1  S    0.000121   0.000005  -0.000077   0.000356   0.993359
    2  B  1  S   -0.000269  -0.000010   0.000171  -0.000791   0.039329
    3  B  1  X    0.000542   0.000002  -0.000090  -0.000205   0.000001
    4  B  1  Y    0.000000  -0.000585  -0.000022   0.000003   0.000000
    5  B  1  Z   -0.000125   0.000020  -0.000566  -0.000080  -0.000001
    6  B  1  S    0.001319   0.000050  -0.000835   0.003868   0.002514
    7  B  1  X   -0.000059  -0.000000   0.000010   0.000022  -0.000002
    8  B  1  Y   -0.000000   0.000062   0.000002  -0.000000   0.000000
    9  B  1  Z    0.000013  -0.000002   0.000060   0.000009   0.000001
   10  F  2  S    0.976408   0.004172  -0.061182   0.191587  -0.000118
   11  F  2  S    0.015200   0.000061  -0.000893   0.002698  -0.000296
   12  F  2  X    0.000932   0.000004  -0.000056   0.000286  -0.000552
   13  F  2  Y   -0.000001   0.000118   0.000004  -0.000001   0.000000
   14  F  2  Z   -0.000190  -0.000005   0.000129  -0.000035   0.000114
   15  F  2  S   -0.010873  -0.000017   0.000179   0.000272  -0.005540
   16  F  2  X   -0.004059   0.000000   0.000106   0.001548  -0.003906
   17  F  2  Y    0.000002   0.001649   0.000061  -0.000009   0.000004
   18  F  2  Z    0.000876  -0.000059   0.001625   0.000024   0.000808
   19  F  3  S   -0.098140  -0.017465   0.683498   0.718841  -0.000118
   20  F  3  S   -0.001642  -0.000278   0.010779   0.010963  -0.000296
   21  F  3  X   -0.000062   0.000009  -0.000357  -0.000382   0.000292
   22  F  3  Y    0.000000   0.000118   0.000001  -0.000005   0.000003
   23  F  3  Z    0.000103   0.000011  -0.000505  -0.000683   0.000482
   24  F  3  S    0.002058   0.000244  -0.008787  -0.006075  -0.005539
   25  F  3  X   -0.001971  -0.000047   0.001571   0.000937   0.002066
   26  F  3  Y   -0.000005   0.001649   0.000073  -0.000005   0.000019
   27  F  3  Z   -0.000388  -0.000123   0.003774   0.000825   0.003412
   28  F  4  S   -0.123330  -0.685958  -0.532995   0.473293  -0.000118
   29  F  4  S   -0.002037  -0.010756  -0.008289   0.007114  -0.000296
   30  F  4  X   -0.000082   0.000170   0.000153  -0.000087   0.000130
   31  F  4  Y   -0.000096  -0.000485  -0.000473   0.000453  -0.000462
   32  F  4  Z   -0.000036  -0.000390  -0.000191   0.000306  -0.000296
   33  F  4  S    0.002362   0.008293   0.005860  -0.003118  -0.005540
   34  F  4  X   -0.001743  -0.000521  -0.000061   0.000554   0.000924
   35  F  4  Y    0.000774   0.003473   0.001180   0.000065  -0.003269
   36  F  4  Z    0.000847   0.001110   0.002312   0.000272  -0.002094
   37  F  5  S   -0.124986   0.723168  -0.488710   0.465195  -0.000118
   38  F  5  S   -0.002063   0.011332  -0.007595   0.006987  -0.000296
   39  F  5  X   -0.000082  -0.000180   0.000142  -0.000085   0.000130
   40  F  5  Y    0.000097  -0.000514   0.000439  -0.000444   0.000458
   41  F  5  Z   -0.000038   0.000411  -0.000171   0.000307  -0.000301
   42  F  5  S    0.002382  -0.008674   0.005327  -0.003021  -0.005540
   43  F  5  X   -0.001744   0.000524  -0.000027   0.000548   0.000922
   44  F  5  Y   -0.000773   0.003524  -0.000935  -0.000102   0.003246
   45  F  5  Z    0.000858  -0.001287   0.002248   0.000287  -0.002130

                      6          7          8          9         10
                   -1.4567    -1.4029    -1.4029    -1.4028    -0.6025
                     A          A          A          A          A   
    1  B  1  S   -0.085214   0.000000   0.000001  -0.000017  -0.165723
    2  B  1  S    0.188824  -0.000000  -0.000002   0.000042   0.510332
    3  B  1  X    0.000029  -0.099597  -0.001035   0.024115   0.000061
    4  B  1  Y    0.000001  -0.000623   0.102465   0.001825   0.000001
    5  B  1  Z   -0.000042   0.024129  -0.001627   0.099573  -0.000062
    6  B  1  S    0.023560   0.000006  -0.000000   0.000007   0.069150
    7  B  1  X   -0.000001  -0.001548  -0.000016   0.000373   0.000007
    8  B  1  Y   -0.000000  -0.000010   0.001583   0.000028   0.000000
    9  B  1  Z    0.000001   0.000375  -0.000025   0.001541  -0.000003
   10  F  2  S   -0.115857  -0.211362  -0.001598   0.007057   0.037192
   11  F  2  S    0.463798   0.860769   0.006508  -0.028741  -0.179041
   12  F  2  X    0.053328   0.070656   0.000515  -0.000984   0.341622
   13  F  2  Y   -0.000048  -0.000111   0.006777   0.000123  -0.000309
   14  F  2  Z   -0.011034  -0.014381  -0.000228   0.007119  -0.070690
   15  F  2  S   -0.015268  -0.045385  -0.000343   0.001515  -0.102928
   16  F  2  X   -0.008130  -0.040551  -0.000319   0.002273   0.039277
   17  F  2  Y    0.000007   0.000005   0.004526   0.000079  -0.000035
   18  F  2  Z    0.001679   0.008546  -0.000015   0.004142  -0.008131
   19  F  3  S   -0.115818   0.063733   0.002959  -0.201654   0.037199
   20  F  3  S    0.463637  -0.259548  -0.012049   0.821234  -0.179075
   21  F  3  X   -0.028187   0.005732   0.000503  -0.037370  -0.180549
   22  F  3  Y   -0.000263   0.000074   0.006790  -0.000243  -0.001684
   23  F  3  Z   -0.046589   0.021953   0.000837  -0.057796  -0.298468
   24  F  3  S   -0.015276   0.013682   0.000635  -0.043315  -0.102959
   25  F  3  X    0.004305  -0.010157  -0.000313   0.019296  -0.020741
   26  F  3  Y    0.000040  -0.000081   0.004532   0.000251  -0.000194
   27  F  3  Z    0.007105  -0.008462  -0.000514   0.034548  -0.034310
   28  F  4  S   -0.115903   0.072556   0.171975   0.099373   0.037210
   29  F  4  S    0.463978  -0.295480  -0.700368  -0.404700  -0.179128
   30  F  4  X   -0.012602  -0.000324   0.014783   0.010178  -0.080684
   31  F  4  Y    0.044645  -0.022235  -0.045810  -0.030267   0.285916
   32  F  4  Z    0.028587  -0.012615  -0.033788  -0.012864   0.183062
   33  F  4  S   -0.015309   0.015586   0.036964   0.021357  -0.103011
   34  F  4  X    0.001930  -0.007329  -0.006992  -0.002947  -0.009262
   35  F  4  Y   -0.006825   0.010361   0.029159   0.014312   0.032851
   36  F  4  Z   -0.004373   0.007717   0.015698   0.013516   0.021031
   37  F  5  S   -0.115905   0.075025  -0.173331   0.095089   0.037210
   38  F  5  S    0.463989  -0.305535   0.705890  -0.387252  -0.179130
   39  F  5  X   -0.012582  -0.000121  -0.015012   0.009795  -0.080551
   40  F  5  Y   -0.044335   0.022748  -0.045855   0.028996  -0.283924
   41  F  5  Z    0.029077  -0.013351   0.034419  -0.012344   0.186201
   42  F  5  S   -0.015310   0.016116  -0.037256   0.020436  -0.103012
   43  F  5  X    0.001927  -0.007423   0.006944  -0.002768  -0.009247
   44  F  5  Y    0.006778  -0.010695   0.029180  -0.013442  -0.032622
   45  F  5  Z   -0.004448   0.008061  -0.016239   0.013272   0.021391

                     11         12         13         14         15
                   -0.5247    -0.5247    -0.5247    -0.4349    -0.4349
                     A          A          A          A          A   
    1  B  1  S   -0.000030   0.000001   0.000023  -0.000000  -0.000003
    2  B  1  S    0.000085  -0.000002  -0.000067   0.000000   0.000012
    3  B  1  X   -0.341487  -0.000897  -0.031597   0.000001  -0.000030
    4  B  1  Y   -0.000434   0.342898  -0.005041  -0.000016   0.000001
    5  B  1  Z    0.031622  -0.004980  -0.341418   0.000001   0.000045
    6  B  1  S   -0.000005  -0.000000  -0.000006  -0.000000  -0.000004
    7  B  1  X    0.005591   0.000015   0.000524   0.000000  -0.000011
    8  B  1  Y    0.000007  -0.005639   0.000083  -0.000033   0.000000
    9  B  1  Z   -0.000514   0.000082   0.005626   0.000000  -0.000021
   10  F  2  S    0.034411   0.000017  -0.003864  -0.000000   0.000003
   11  F  2  S   -0.169871  -0.000086   0.019072   0.000000  -0.000012
   12  F  2  X    0.464895  -0.000452  -0.118526  -0.000100   0.090150
   13  F  2  Y   -0.001125   0.325292  -0.004702   0.444513   0.002386
   14  F  2  Z   -0.133217  -0.004806  -0.305603  -0.002414   0.435341
   15  F  2  S   -0.141776  -0.000071   0.015922   0.000000  -0.000007
   16  F  2  X    0.035473  -0.000118  -0.017079  -0.000026   0.023785
   17  F  2  Y   -0.000171   0.064231  -0.000934   0.117312   0.000630
   18  F  2  Z   -0.014650  -0.000943  -0.061648  -0.000637   0.114898
   19  F  3  S   -0.015110  -0.000310  -0.031153   0.000000   0.000001
   20  F  3  S    0.074596   0.001530   0.153787  -0.000000  -0.000008
   21  F  3  X   -0.140721   0.002904   0.347371   0.000076  -0.379916
   22  F  3  Y    0.001296   0.325230  -0.001260  -0.444224   0.001209
   23  F  3  Z    0.332580   0.001484   0.300011   0.002458   0.229923
   24  F  3  S    0.062260   0.001277   0.128374  -0.000000  -0.000003
   25  F  3  X   -0.040842   0.000305   0.041628   0.000020  -0.100234
   26  F  3  Y    0.000134   0.064219  -0.000500  -0.117205   0.000319
   27  F  3  Z    0.044056  -0.000150   0.014682   0.000649   0.060684
   28  F  4  S   -0.009606  -0.028124   0.017761   0.000001  -0.000002
   29  F  4  S    0.047426   0.138839  -0.087679  -0.000004   0.000010
   30  F  4  X   -0.271882   0.151350  -0.126115   0.407077   0.144897
   31  F  4  Y   -0.184695  -0.214093   0.335918   0.001199   0.254698
   32  F  4  Z   -0.088008  -0.350113  -0.105797   0.177806  -0.333928
   33  F  4  S    0.039592   0.115913  -0.073203  -0.000003   0.000011
   34  F  4  X   -0.057386   0.019007  -0.018034   0.107411   0.038232
   35  F  4  Y   -0.023309  -0.003743   0.041996   0.000326   0.067216
   36  F  4  Z   -0.008954  -0.044460  -0.036478   0.046921  -0.088107
   37  F  5  S   -0.009693   0.028416   0.017241  -0.000001  -0.000002
   38  F  5  S    0.047856  -0.140281  -0.085111   0.000004   0.000010
   39  F  5  X   -0.271501  -0.154381  -0.123148  -0.407059   0.145076
   40  F  5  Y    0.184246  -0.215894  -0.333204  -0.000985  -0.258296
   41  F  5  Z   -0.091118   0.350234  -0.108559  -0.177855  -0.331082
   42  F  5  S    0.039951  -0.117117  -0.071060   0.000003   0.000011
   43  F  5  X   -0.057339  -0.019510  -0.017660  -0.107406   0.038280
   44  F  5  Y    0.023194  -0.003970  -0.042337  -0.000251  -0.068166
   45  F  5  Z   -0.009346   0.043800  -0.036826  -0.046935  -0.087356

                     16         17         18         19         20
                   -0.4010    -0.4010    -0.4009    -0.3863    -0.3863
                     A          A          A          A          A   
    1  B  1  S    0.000009  -0.000000   0.000004   0.000000  -0.000000
    2  B  1  S   -0.000026   0.000001  -0.000011  -0.000000   0.000000
    3  B  1  X   -0.135799   0.001039  -0.027216  -0.000002   0.000043
    4  B  1  Y   -0.000564  -0.138508  -0.002470   0.000140   0.000009
    5  B  1  Z    0.027198   0.002311  -0.135837  -0.000011   0.000171
    6  B  1  S   -0.000005   0.000000  -0.000002  -0.000000   0.000000
    7  B  1  X   -0.083782   0.000641  -0.016777  -0.000001   0.000026
    8  B  1  Y   -0.000348  -0.085414  -0.001523   0.000108   0.000007
    9  B  1  Z    0.016785   0.001425  -0.083757  -0.000009   0.000129
   10  F  2  S    0.004873  -0.000024  -0.000031  -0.000000   0.000001
   11  F  2  S   -0.011417   0.000055   0.000071   0.000000  -0.000009
   12  F  2  X    0.515505  -0.003640   0.080970  -0.007157   0.115978
   13  F  2  Y    0.001605   0.415876   0.007418   0.571414   0.037613
   14  F  2  Z   -0.104004  -0.006832   0.408074  -0.037087   0.560707
   15  F  2  S   -0.012923   0.000062   0.000086   0.000000  -0.000004
   16  F  2  X    0.134071  -0.001026   0.026878  -0.002382   0.038603
   17  F  2  Y    0.000560   0.136852   0.002441   0.190155   0.012517
   18  F  2  Z   -0.026866  -0.002284   0.134246  -0.012342   0.186592
   19  F  3  S   -0.001656   0.000065  -0.004585   0.000000  -0.000004
   20  F  3  S    0.003892  -0.000152   0.010739  -0.000003   0.000050
   21  F  3  X    0.426657  -0.003889   0.136391  -0.029661   0.490704
   22  F  3  Y    0.001868   0.414863   0.007894  -0.154085  -0.009593
   23  F  3  Z   -0.049644  -0.008181   0.495792   0.018872  -0.297790
   24  F  3  S    0.004382  -0.000172   0.012161  -0.000000   0.000003
   25  F  3  X    0.134011  -0.001029   0.027163  -0.009872   0.163320
   26  F  3  Y    0.000555   0.136508   0.002433  -0.051276  -0.003192
   27  F  3  Z   -0.026870  -0.002278   0.133899   0.006276  -0.099033
   28  F  4  S   -0.001591   0.003955   0.002355   0.000002   0.000002
   29  F  4  S    0.003732  -0.009252  -0.005506  -0.000030  -0.000023
   30  F  4  X    0.415549  -0.024665   0.068609  -0.432722  -0.330693
   31  F  4  Y   -0.027814   0.488713   0.051293  -0.209297  -0.014259
   32  F  4  Z   -0.100440   0.040158   0.435009   0.135076  -0.124296
   33  F  4  S    0.004217  -0.010514  -0.006250   0.000000   0.000001
   34  F  4  X    0.133996  -0.001270   0.026655  -0.144004  -0.110050
   35  F  4  Y    0.000559   0.136615   0.002471  -0.069612  -0.004715
   36  F  4  Z   -0.026832  -0.002279   0.133923   0.044973  -0.041348
   37  F  5  S   -0.001631  -0.003997   0.002256  -0.000003   0.000001
   38  F  5  S    0.003823   0.009347  -0.005275   0.000033  -0.000019
   39  F  5  X    0.415755   0.018635   0.069166   0.469564  -0.276666
   40  F  5  Y    0.031710   0.488962  -0.034357  -0.210495  -0.013924
   41  F  5  Z   -0.101239  -0.055317   0.434304  -0.116663  -0.141587
   42  F  5  S    0.004321   0.010623  -0.005988  -0.000000   0.000000
   43  F  5  X    0.134000  -0.000775   0.026662   0.156264  -0.092071
   44  F  5  Y    0.000552   0.136614   0.002403  -0.070008  -0.004659
   45  F  5  Z   -0.026832  -0.002279   0.133926  -0.038848  -0.047105

                     21         22         23         24         25
                   -0.3863     0.2191     0.2203     0.2203     0.2203
                     A          A          A          A          A   
    1  B  1  S    0.000000  -0.017334   0.000001   0.000003  -0.000173
    2  B  1  S   -0.000000   0.128035  -0.000008  -0.000005   0.001218
    3  B  1  X   -0.000000  -0.000277  -0.000030   0.002000   0.025822
    4  B  1  Y   -0.000049   0.000002   0.025884   0.000514  -0.000010
    5  B  1  Z   -0.000001   0.000035  -0.000513   0.025808  -0.002004
    6  B  1  S    0.000000   2.042023  -0.000122  -0.000336   0.020151
    7  B  1  X   -0.000000  -0.015024  -0.001801   0.120304   1.551402
    8  B  1  Y   -0.000038   0.000103   1.555757   0.030865  -0.000586
    9  B  1  Z   -0.000001   0.001380  -0.030818   1.551073  -0.120296
   10  F  2  S   -0.000000   0.015851  -0.000022   0.001343  -0.010417
   11  F  2  S    0.000000  -0.068829   0.000100  -0.006056   0.046992
   12  F  2  X   -0.000254  -0.000451   0.000083  -0.005457  -0.035390
   13  F  2  Y   -0.039203  -0.000002  -0.048770  -0.000966   0.000006
   14  F  2  Z   -0.001058   0.000140   0.000961  -0.048277   0.001034
   15  F  2  S    0.000000  -0.504325   0.000603  -0.036176   0.280160
   16  F  2  X   -0.000085   0.006194   0.000174  -0.011986  -0.299498
   17  F  2  Y   -0.013045  -0.000020  -0.245374  -0.004874   0.000142
   18  F  2  Z   -0.000352  -0.001019   0.004883  -0.246067   0.030335
   19  F  3  S    0.000000   0.015699  -0.000136   0.009512   0.004948
   20  F  3  S   -0.000000  -0.068139   0.000615  -0.042890  -0.022282
   21  F  3  X   -0.001244   0.000883  -0.000034   0.002545  -0.045434
   22  F  3  Y    0.553882   0.000000  -0.048758  -0.000909   0.000048
   23  F  3  Z   -0.002367   0.000558   0.000818  -0.038206   0.009016
   24  F  3  S    0.000000  -0.500221   0.003682  -0.256355  -0.134282
   25  F  3  X   -0.000414   0.000722   0.000656  -0.045077  -0.257802
   26  F  3  Y    0.184331  -0.000032  -0.245380  -0.005112  -0.000031
   27  F  3  Z   -0.000788  -0.003013   0.005477  -0.287910  -0.002840
   28  F  4  S   -0.000001   0.015714  -0.008621  -0.005557   0.003046
   29  F  4  S    0.000009  -0.068211   0.038872   0.025056  -0.013707
   30  F  4  X    0.127047   0.000675  -0.002507  -0.005421  -0.047756
   31  F  4  Y   -0.254398  -0.000602  -0.039725   0.004852  -0.003014
   32  F  4  Z    0.453602  -0.000432   0.006751  -0.044884   0.001828
   33  F  4  S   -0.000001  -0.500633   0.232347   0.149800  -0.082978
   34  F  4  X    0.042286   0.001616   0.010829  -0.012186  -0.248202
   35  F  4  Y   -0.084675   0.002742  -0.282916  -0.029055   0.012692
   36  F  4  Z    0.150954   0.001552  -0.019171  -0.260118   0.027031
   37  F  5  S    0.000001   0.015715   0.008776  -0.005308   0.003043
   38  F  5  S   -0.000008  -0.068216  -0.039571   0.023931  -0.013692
   39  F  5  X   -0.125544   0.000675   0.002662  -0.005344  -0.047758
   40  F  5  Y   -0.259430   0.000593  -0.039625  -0.006486   0.003026
   41  F  5  Z   -0.450158  -0.000440  -0.005026  -0.044990   0.001797
   42  F  5  S    0.000001  -0.500663  -0.236511   0.143079  -0.082891
   43  F  5  X   -0.041786   0.001616  -0.010435  -0.012502  -0.248192
   44  F  5  Y   -0.086350  -0.002760  -0.283331   0.018072  -0.012406
   45  F  5  Z   -0.149809   0.001585   0.029748  -0.259677   0.027160

                     26         27         28         29         30
                    0.5575     0.5575     0.5575     0.5803     0.6057
                     A          A          A          A          A   
    1  B  1  S   -0.000096   0.000000   0.000219   0.137758   0.000037
    2  B  1  S    0.000189   0.000001  -0.000579  -0.302299  -0.000331
    3  B  1  X   -0.015632  -0.000266   0.524744  -0.000374  -0.000024
    4  B  1  Y    0.003866   0.524927   0.000381   0.000001  -0.000000
    5  B  1  Z    0.524767  -0.003874   0.015655   0.000090  -0.000083
    6  B  1  S   -0.000765   0.000002   0.001892   1.561182   0.000405
    7  B  1  X    0.023581   0.000400  -0.791573   0.000424  -0.000511
    8  B  1  Y   -0.005830  -0.792020  -0.000575   0.000001  -0.000012
    9  B  1  Z   -0.791578   0.005846  -0.023614  -0.000245  -0.003169
   10  F  2  S    0.014389  -0.000007  -0.060351  -0.061667  -0.000010
   11  F  2  S   -0.098434   0.000049   0.412806   0.485392   0.000075
   12  F  2  X    0.024861   0.000016  -0.150906   0.131021  -0.059870
   13  F  2  Y   -0.000412  -0.052972   0.000050  -0.000117  -0.001578
   14  F  2  Z   -0.057794   0.000393   0.018726  -0.026986  -0.289154
   15  F  2  S   -0.029680   0.000014   0.124709  -0.940445  -0.000187
   16  F  2  X   -0.303743   0.000013   1.505061   0.165499   0.105224
   17  F  2  Y    0.002207   0.263420  -0.000932  -0.000153   0.002771
   18  F  2  Z    0.324434  -0.001974  -0.249183  -0.034353   0.507787
   19  F  3  S    0.052070  -0.000108   0.033546  -0.061707   0.000081
   20  F  3  S   -0.356074   0.000741  -0.229317   0.485603  -0.000565
   21  F  3  X   -0.043081   0.000120  -0.081886  -0.069356   0.251916
   22  F  3  Y   -0.000808  -0.053106  -0.000309  -0.000640  -0.000800
   23  F  3  Z   -0.126933   0.000545  -0.049641  -0.113448  -0.151831
   24  F  3  S   -0.109180   0.000227  -0.071402  -0.939756  -0.000019
   25  F  3  X    0.558775  -0.001312   0.629062  -0.088582  -0.441512
   26  F  3  Y    0.007229   0.263807   0.003606  -0.000835   0.001410
   27  F  3  Z    1.200449  -0.003896   0.613014  -0.147529   0.267613
   28  F  4  S   -0.033256  -0.050526   0.013226  -0.061720  -0.000064
   29  F  4  S    0.227366   0.345485  -0.090369   0.485686   0.000465
   30  F  4  X    0.014329   0.019422  -0.058051  -0.031177  -0.096246
   31  F  4  Y   -0.045760  -0.121863   0.018282   0.108674  -0.167456
   32  F  4  Z   -0.082156  -0.043647   0.010107   0.069663   0.219581
   33  F  4  S    0.070559   0.106454  -0.028848  -0.939676  -0.000331
   34  F  4  X   -0.169620  -0.245862   0.327879  -0.039547   0.168754
   35  F  4  Y    0.575752   1.134795  -0.228983   0.141545   0.294665
   36  F  4  Z    0.631043   0.555845  -0.138796   0.090717  -0.384969
   37  F  5  S   -0.033067   0.050641   0.013259  -0.061720  -0.000065
   38  F  5  S    0.226073  -0.346272  -0.090595   0.485687   0.000467
   39  F  5  X    0.014236  -0.019381  -0.058055  -0.031126  -0.096372
   40  F  5  Y    0.044406  -0.121541  -0.018277  -0.107914   0.169819
   41  F  5  Z   -0.082487   0.045288   0.010337   0.070855   0.217708
   42  F  5  S    0.070162  -0.106701  -0.028919  -0.939677  -0.000331
   43  F  5  X   -0.168436   0.245750   0.327932  -0.039481   0.168975
   44  F  5  Y   -0.564631   1.130693   0.228337  -0.140561  -0.298813
   45  F  5  Z    0.635215  -0.570589  -0.141683   0.092270  -0.381672

                     31         32         33         34         35
                    0.6057     0.6123     0.6123     0.6123     0.6742
                     A          A          A          A          A   
    1  B  1  S    0.000000  -0.000041   0.000000   0.000205   0.000000
    2  B  1  S   -0.000000   0.000261  -0.000004  -0.001533  -0.000000
    3  B  1  X    0.000001   0.002991   0.000049   0.050772  -0.000002
    4  B  1  Y   -0.000096   0.000564  -0.050870   0.000016   0.000249
    5  B  1  Z    0.000001   0.050769   0.000561  -0.002959  -0.000004
    6  B  1  S    0.000000  -0.000585   0.000002   0.002668   0.000000
    7  B  1  X    0.000009   0.041089   0.000676   0.701718   0.000000
    8  B  1  Y   -0.003012   0.007781  -0.702566   0.000222   0.000110
    9  B  1  Z    0.000020   0.701303   0.007755  -0.041116  -0.000002
   10  F  2  S    0.000000  -0.002612  -0.000007   0.017876   0.000000
   11  F  2  S   -0.000002   0.017022   0.000049  -0.116540  -0.000001
   12  F  2  X    0.000064   0.089114   0.000549  -0.085807   0.000604
   13  F  2  Y   -0.295169   0.004080  -0.373735   0.000537  -0.295038
   14  F  2  Z    0.001602   0.359087   0.004084   0.073150   0.004212
   15  F  2  S   -0.000000   0.012952   0.000034  -0.087994   0.000003
   16  F  2  X   -0.000116  -0.114724  -0.000881  -0.200784  -0.002366
   17  F  2  Y    0.518316  -0.007725   0.703440  -0.000683   1.155494
   18  F  2  Z   -0.002812  -0.686747  -0.007718  -0.062707  -0.016494
   19  F  3  S   -0.000000  -0.016023  -0.000093  -0.008563  -0.000000
   20  F  3  S    0.000002   0.104531   0.000606   0.055983   0.000001
   21  F  3  X   -0.000045  -0.194371  -0.000888   0.259716   0.002256
   22  F  3  Y    0.292095   0.002124  -0.376045  -0.000955   0.029572
   23  F  3  Z   -0.001622   0.014023   0.002061  -0.211618  -0.001532
   24  F  3  S    0.000000   0.077761   0.000447   0.039363  -0.000003
   25  F  3  X    0.000077   0.194585   0.000680  -0.579497  -0.008833
   26  F  3  Y   -0.512621  -0.005593   0.707349   0.000948  -0.115880
   27  F  3  Z    0.002843  -0.309486  -0.005517   0.247900   0.005997
   28  F  4  S   -0.000078   0.009442  -0.014762  -0.004837  -0.000004
   29  F  4  S    0.000556  -0.061646   0.096321   0.031675   0.000034
   30  F  4  X   -0.269390   0.078489  -0.087855   0.345572   0.222534
   31  F  4  Y   -0.000920  -0.198712  -0.058177   0.101700   0.132274
   32  F  4  Z   -0.116570   0.245754   0.207422   0.043240  -0.108443
   33  F  4  S   -0.000145  -0.045080   0.071309   0.021302  -0.000171
   34  F  4  X    0.472580  -0.102796   0.095024  -0.673077  -0.871508
   35  F  4  Y    0.002604   0.214424   0.358982  -0.110547  -0.517982
   36  F  4  Z    0.205228  -0.564223  -0.230431  -0.029639   0.424875
   37  F  5  S    0.000078   0.009277   0.014862  -0.004849   0.000004
   38  F  5  S   -0.000555  -0.060570  -0.096974   0.031753  -0.000034
   39  F  5  X    0.269381   0.077407   0.089028   0.345543  -0.225393
   40  F  5  Y    0.000518   0.202102  -0.058248  -0.101008   0.133348
   41  F  5  Z    0.116613   0.245839  -0.204005   0.044520   0.105761
   42  F  5  S    0.000145  -0.044283  -0.071795   0.021360   0.000172
   43  F  5  X   -0.472567  -0.101620  -0.096873  -0.673045   0.882710
   44  F  5  Y    0.000073  -0.224681   0.359055   0.109608  -0.522190
   45  F  5  Z   -0.205315  -0.564318   0.220166  -0.031028  -0.414368

                     36         37         38         39         40
                    0.6742     0.6742     0.6849     0.7779     0.7780
                     A          A          A          A          A   
    1  B  1  S   -0.000000  -0.000000  -0.027786   0.000118   0.000001
    2  B  1  S    0.000000   0.000001   1.532921  -0.001253  -0.000005
    3  B  1  X    0.000008   0.000191   0.000764  -0.067197  -0.003864
    4  B  1  Y   -0.000086   0.000007  -0.000003  -0.012931   0.942669
    5  B  1  Z    0.000014   0.000332  -0.000182  -0.940296  -0.012686
    6  B  1  S   -0.000000  -0.000000  -0.579173  -0.000581  -0.000008
    7  B  1  X    0.000001   0.000041   0.000671  -0.037209  -0.002141
    8  B  1  Y   -0.000047   0.000004  -0.000002  -0.007169   0.522600
    9  B  1  Z    0.000005   0.000135  -0.000172  -0.521360  -0.007034
   10  F  2  S   -0.000000  -0.000006  -0.007003  -0.007172   0.000118
   11  F  2  S    0.000002   0.000048   0.080621   0.063414  -0.001042
   12  F  2  X   -0.002470  -0.061493   0.200234   0.089751  -0.001066
   13  F  2  Y    0.072683  -0.007121  -0.000182   0.000974  -0.076594
   14  F  2  Z   -0.012265  -0.297370  -0.041485   0.058908   0.001316
   15  F  2  S   -0.000007  -0.000176   0.108793  -0.113800   0.001871
   16  F  2  X    0.009677   0.240898  -0.698621  -0.035556   0.003354
   17  F  2  Y   -0.284666   0.027887   0.000635   0.007294  -0.526985
   18  F  2  Z    0.048029   1.164463   0.144674   0.540795   0.006846
   19  F  3  S    0.000000   0.000010  -0.006952  -0.048281  -0.000478
   20  F  3  S   -0.000004  -0.000086   0.080124   0.427038   0.004226
   21  F  3  X   -0.010301  -0.259985  -0.105340  -0.294061  -0.002649
   22  F  3  Y   -0.302292   0.013124  -0.000986  -0.001742  -0.076803
   23  F  3  Z    0.007941   0.157261  -0.174675  -0.418547  -0.003865
   24  F  3  S    0.000017   0.000381   0.110361  -0.766744  -0.007587
   25  F  3  X    0.040340   1.018115   0.367675   0.297104   0.004728
   26  F  3  Y    1.184146  -0.051406   0.003444   0.009649  -0.526671
   27  F  3  Z   -0.031086  -0.615542   0.609819   0.954910   0.011341
   28  F  4  S    0.000001  -0.000002  -0.006949   0.028117  -0.044123
   29  F  4  S   -0.000005   0.000019   0.080105  -0.248764   0.390318
   30  F  4  X   -0.100614   0.166979  -0.046951   0.083306  -0.121879
   31  F  4  Y    0.113514  -0.002907   0.167105  -0.274659   0.356138
   32  F  4  Z   -0.221598   0.078145   0.107011  -0.099950   0.278268
   33  F  4  S    0.000039  -0.000106   0.110391   0.447133  -0.701089
   34  F  4  X    0.394102  -0.654060   0.163779  -0.030047   0.108055
   35  F  4  Y   -0.444724   0.011520  -0.583600   0.246747  -0.902453
   36  F  4  Z    0.868064  -0.306145  -0.373586   0.678689  -0.233525
   37  F  5  S   -0.000001  -0.000002  -0.006950   0.027390   0.044483
   38  F  5  S    0.000007   0.000018   0.080107  -0.242333  -0.393506
   39  F  5  X    0.113387   0.154543  -0.046873   0.081166   0.123301
   40  F  5  Y    0.116023  -0.003091  -0.165939   0.267754   0.356620
   41  F  5  Z    0.225930   0.062155   0.108843  -0.098324  -0.283247
   42  F  5  S   -0.000048  -0.000099   0.110384   0.435586   0.706829
   43  F  5  X   -0.444136  -0.605352   0.163507  -0.028193  -0.104427
   44  F  5  Y   -0.454562   0.011981   0.579534  -0.224480  -0.902876
   45  F  5  Z   -0.885038  -0.243509  -0.379987   0.677283   0.253820

                     41         42         43         44         45
                    0.7781     0.8683     0.9300     0.9301     0.9301
                     A          A          A          A          A   
    1  B  1  S   -0.000278  -0.277067  -0.000170  -0.000065  -0.000001
    2  B  1  S    0.003603   1.986076   0.001615   0.000602   0.000010
    3  B  1  X   -0.940209   0.000689   0.920652  -0.199874  -0.000111
    4  B  1  Y   -0.002949  -0.000000  -0.000767  -0.004062   0.941952
    5  B  1  Z    0.067103  -0.000299  -0.200004  -0.920341  -0.004138
    6  B  1  S    0.001097   0.860188   0.000215   0.000129   0.000003
    7  B  1  X   -0.521209   0.000561  -0.194006   0.042223   0.000024
    8  B  1  Y   -0.001635   0.000001   0.000162   0.000858  -0.198781
    9  B  1  Z    0.037248  -0.000296   0.042102   0.194216   0.000872
   10  F  2  S    0.053754   0.004433   0.059101  -0.000582  -0.000007
   11  F  2  S   -0.475391   0.047320  -0.722735   0.007138   0.000083
   12  F  2  X   -0.554409  -0.371747   0.176973   0.010421  -0.000020
   13  F  2  Y    0.000810   0.000336  -0.000164   0.000262  -0.060292
   14  F  2  Z    0.125024   0.076916  -0.035993   0.059420   0.000271
   15  F  2  S    0.852850  -0.772066   3.255269  -0.032028  -0.000372
   16  F  2  X    1.072178  -0.062274   1.930327  -0.133897  -0.000225
   17  F  2  Y    0.001154   0.000053  -0.001708  -0.002435   0.567120
   18  F  2  Z   -0.150661   0.013153  -0.405142  -0.551233  -0.002457
   19  F  3  S   -0.024740   0.004554  -0.019151   0.055940  -0.000060
   20  F  3  S    0.218916   0.046130   0.234277  -0.684088   0.000732
   21  F  3  X   -0.076541   0.196784  -0.018377  -0.105238   0.000134
   22  F  3  Y   -0.001188   0.001836   0.000427  -0.000840  -0.060184
   23  F  3  Z   -0.258448   0.325381   0.079828  -0.136054   0.000473
   24  F  3  S   -0.393198  -0.768844  -1.055145   3.081680  -0.003298
   25  F  3  X    0.658424   0.030945   0.789754  -0.808621   0.000668
   26  F  3  Y    0.002891   0.000293   0.001738  -0.008875   0.567460
   27  F  3  Z    0.182489   0.052761   0.269442  -1.692802  -0.001273
   28  F  4  S   -0.014444   0.004610  -0.019964  -0.027619   0.048301
   29  F  4  S    0.127859   0.045571   0.244242   0.337808  -0.590738
   30  F  4  X    0.036779   0.087938  -0.040026   0.038873  -0.045610
   31  F  4  Y    0.141403  -0.311793  -0.066924  -0.092052   0.101146
   32  F  4  Z    0.084939  -0.199619  -0.030082  -0.000295   0.103596
   33  F  4  S   -0.229972  -0.767361  -1.100476  -1.522187   2.661748
   34  F  4  X    0.560008   0.013242   0.664003   0.031225  -0.265440
   35  F  4  Y   -0.121480  -0.049547  -0.389636  -0.540762   1.508738
   36  F  4  Z   -0.116420  -0.031259  -0.369505  -0.899149   0.600303
   37  F  5  S   -0.014735   0.004611  -0.019976  -0.027726  -0.048234
   38  F  5  S    0.130438   0.045561   0.244387   0.339118   0.589922
   39  F  5  X    0.036041   0.087794  -0.040046   0.038933   0.045488
   40  F  5  Y   -0.142776   0.309622   0.066597   0.092285   0.099805
   41  F  5  Z    0.088349  -0.203041  -0.030844  -0.001542  -0.104695
   42  F  5  S   -0.234607  -0.767334  -1.101138  -1.528101  -2.658089
   43  F  5  X    0.560649   0.013216   0.663888   0.031563   0.264501
   44  F  5  Y    0.126382   0.049186   0.386228   0.534184   1.500884
   45  F  5  Z   -0.119387  -0.031796  -0.373925  -0.906415  -0.614764
 ...... END OF RHF CALCULATION ......
 CPU     0: STEP CPU TIME=     0.07 TOTAL CPU TIME=          0.1 (      0.0 MIN)
 TOTAL WALL CLOCK TIME=          0.2 SECONDS, CPU UTILIZATION IS    58.33%

     ----------------------------------------------------------------
     PROPERTY VALUES FOR THE RHF   SELF-CONSISTENT FIELD WAVEFUNCTION
     ----------------------------------------------------------------

          -----------------
          ENERGY COMPONENTS
          -----------------

         WAVEFUNCTION NORMALIZATION =       1.0000000000

                ONE ELECTRON ENERGY =    -945.4011882784
                TWO ELECTRON ENERGY =     348.6601596041
           NUCLEAR REPULSION ENERGY =     175.4281494138
                                      ------------------
                       TOTAL ENERGY =    -421.3128792606

 ELECTRON-ELECTRON POTENTIAL ENERGY =     348.6601596041
  NUCLEUS-ELECTRON POTENTIAL ENERGY =   -1358.8884596863
   NUCLEUS-NUCLEUS POTENTIAL ENERGY =     175.4281494138
                                      ------------------
             TOTAL POTENTIAL ENERGY =    -834.8001506685
               TOTAL KINETIC ENERGY =     413.4872714079
                 VIRIAL RATIO (V/T) =       2.0189258736

          ---------------------------------------
          MULLIKEN AND LOWDIN POPULATION ANALYSES
          ---------------------------------------

     ATOMIC MULLIKEN POPULATION IN EACH MOLECULAR ORBITAL

                      1          2          3          4          5

                  2.000000   2.000000   2.000000   2.000000   2.000000

    1            -0.000015  -0.000053  -0.000038   0.000275   2.008848
    2             1.918246   0.000099   0.007597   0.074016  -0.002212
    3             0.019493   0.000678   0.940217   1.039571  -0.002212
    4             0.030724   0.946890   0.571631   0.450713  -0.002212
    5             0.031552   1.052387   0.480593   0.435426  -0.002212

                      6          7          8          9         10

                  2.000000   2.000000   2.000000   2.000000   2.000000

    1             0.259087   0.103970   0.103961   0.103933   0.495916
    2             0.435148   1.416109   0.002279   0.003772   0.375922
    3             0.434852   0.130759   0.002481   1.289187   0.375890
    4             0.435448   0.168815   0.938231   0.314738   0.376132
    5             0.435465   0.180347   0.953048   0.288370   0.376139

                     11         12         13         14         15

                  2.000000   2.000000   2.000000   2.000000   2.000000

    1             0.363842   0.363820   0.363809  -0.000000   0.000000
    2             0.631928   0.295653   0.299925   0.500490   0.500622
    3             0.360210   0.295522   0.570989   0.499862   0.499515
    4             0.321768   0.520158   0.385218   0.499821   0.499926
    5             0.322252   0.524848   0.380060   0.499827   0.499937

                     16         17         18         19         20

                  2.000000   2.000000   2.000000   2.000000   2.000000

    1            -0.027011  -0.026994  -0.026975  -0.000000  -0.000000
    2             0.627595   0.447563   0.447859   0.744679   0.747651
    3             0.467299   0.445587   0.606452   0.056751   0.748557
    4             0.465564   0.565682   0.488059   0.566229   0.283949
    5             0.466553   0.568162   0.484604   0.632341   0.219843

                     21

                  2.000000

    1            -0.000000
    2             0.003491
    3             0.696787
    4             0.650892
    5             0.648830

               ----- POPULATIONS IN EACH AO -----
                             MULLIKEN      LOWDIN
              1  B  1  S      1.99126     1.96793
              2  B  1  S      0.74776     0.43859
              3  B  1  X      0.48395     0.49692
              4  B  1  Y      0.48393     0.49690
              5  B  1  Z      0.48391     0.49687
              6  B  1  S      0.02517     0.04551
              7  B  1  X     -0.04320     0.02287
              8  B  1  Y     -0.04320     0.02286
              9  B  1  Z     -0.04320     0.02286
             10  F  2  S      1.99889     1.99791
             11  F  2  S      1.94865     1.67260
             12  F  2  X      1.51964     1.48602
             13  F  2  Y      1.74919     1.71473
             14  F  2  Z      1.73936     1.70494
             15  F  2  S     -0.05953     0.20614
             16  F  2  X      0.09867     0.20824
             17  F  2  Y      0.24491     0.25428
             18  F  2  Z      0.23866     0.25231
             19  F  3  S      1.99889     1.99791
             20  F  3  S      1.94865     1.67258
             21  F  3  X      1.68498     1.65076
             22  F  3  Y      1.74919     1.71472
             23  F  3  Z      1.57405     1.54024
             24  F  3  S     -0.05956     0.20614
             25  F  3  X      0.20404     0.24142
             26  F  3  Y      0.24492     0.25428
             27  F  3  Z      0.13329     0.21914
             28  F  4  S      1.99889     1.99791
             29  F  4  S      1.94864     1.67257
             30  F  4  X      1.73637     1.70195
             31  F  4  Y      1.58856     1.55469
             32  F  4  Z      1.68332     1.64910
             33  F  4  S     -0.05958     0.20614
             34  F  4  X      0.23675     0.25170
             35  F  4  Y      0.14251     0.22204
             36  F  4  Z      0.20292     0.24106
             37  F  5  S      1.99889     1.99791
             38  F  5  S      1.94864     1.67257
             39  F  5  X      1.73641     1.70200
             40  F  5  Y      1.59079     1.55692
             41  F  5  Z      1.68104     1.64683
             42  F  5  S     -0.05958     0.20614
             43  F  5  X      0.23677     0.25171
             44  F  5  Y      0.14394     0.22249
             45  F  5  Z      0.20147     0.24060

          ----- MULLIKEN ATOMIC OVERLAP POPULATIONS -----
          (OFF-DIAGONAL ELEMENTS NEED TO BE MULTIPLIED BY 2)

             1           2           3           4           5

    1    3.6297954
    2    0.1141649   9.5670846
    3    0.1141455  -0.0675940   9.5672330
    4    0.1141344  -0.0676124  -0.0676696   9.5671644
    5    0.1141342  -0.0676120  -0.0676692  -0.0676413   9.5671618

          TOTAL MULLIKEN AND LOWDIN ATOMIC POPULATIONS
       ATOM         MULL.POP.    CHARGE          LOW.POP.     CHARGE
    1 B             4.086374    0.913626         4.011324    0.988676
    2 F             9.478431   -0.478431         9.497163   -0.497163
    3 F             9.478446   -0.478446         9.497198   -0.497198
    4 F             9.478375   -0.478375         9.497158   -0.497158
    5 F             9.478373   -0.478373         9.497157   -0.497157

          -------------------------------
          BOND ORDER AND VALENCE ANALYSIS     BOND ORDER THRESHOLD=0.050
          -------------------------------

                   BOND                       BOND                       BOND
  ATOM PAIR DIST  ORDER      ATOM PAIR DIST  ORDER      ATOM PAIR DIST  ORDER
    1   2  1.441  0.715        1   3  1.441  0.715        1   4  1.441  0.715
    1   5  1.441  0.715        2   3  2.353 -0.060        2   4  2.353 -0.060
    2   5  2.353 -0.060        3   4  2.352 -0.060        3   5  2.352 -0.060
    4   5  2.352 -0.060

                       TOTAL       BONDED        FREE
      ATOM            VALENCE     VALENCE     VALENCE
    1 B                 2.861       2.861       0.000
    2 F                 0.535       0.535       0.000
    3 F                 0.535       0.535       0.000
    4 F                 0.535       0.535      -0.000
    5 F                 0.535       0.535       0.000

          ---------------------
          ELECTROSTATIC MOMENTS
          ---------------------

 POINT   1           X           Y           Z (BOHR)    CHARGE
                -0.000000    0.000000    0.000000       -1.00 (A.U.)
         DX          DY          DZ         /D/  (DEBYE)
    -0.001622    0.000013    0.000041    0.001622
 ...... END OF PROPERTY EVALUATION ......
 CPU     0: STEP CPU TIME=     0.00 TOTAL CPU TIME=          0.1 (      0.0 MIN)
 TOTAL WALL CLOCK TIME=          0.2 SECONDS, CPU UTILIZATION IS    58.33%



 ---------------------------     ------------------------------
 DISTRIBUTED DATA MP2 ENERGY     PROGRAM WRITTEN BY G. FLETCHER
 ---------------------------     ------------------------------

 DDI: Creating Array [0] - 2025 x 136 = 275400 words.
    THIS CALCULATION IS RUNNING WITH MWORDS=    4, MEMDDI=     256, AND P=   16
 MEMORY USAGE PER CPU IS 8*(MWORDS + MEMDDI/P)/1024 =    0.2 GBYTES.

 MINIMAL REQUIREMENT FOR THIS RUN IS MWORDS=    1, MEMDDI=       1.
 FOR P=   16, THE MEMORY USAGE PER CPU(CORE) WOULD BE    0.0 GBYTES.


      DIRECT 4-INDEX TRANSFORMATION 
      SCHWARZ INEQUALITY TEST SKIPPED       1420 INTEGRAL BLOCKS

 RESULTS OF MOLLER-PLESSET 2ND ORDER CORRECTION ARE
                     E(SCF)=      -421.3128792606
                       E(2)=        -0.2523451183
                     E(MP2)=      -421.5652243788
 SPIN-COMPONENT-SCALED MP2 RESULTS ARE
                      E(2S)=        -0.1835139532
                      E(2T)=        -0.0688311651
                     E(2ST)=        -0.2431604655 = 6/5 * E(2S) + 1/3 * E(2T)
                    SCS-MP2=      -421.5560397260
 ..... DONE WITH MP2 ENERGY .....
 CPU     0: STEP CPU TIME=     0.02 TOTAL CPU TIME=          0.2 (      0.0 MIN)
 TOTAL WALL CLOCK TIME=          0.3 SECONDS, CPU UTILIZATION IS    59.26%
 AN INPUT FILE FOR -MOLPLT- HAS BEEN PUNCHED.

 AN AIMPAC INPUT FILE IS BEING WRITTEN TO FILE   7

               580000  WORDS OF DYNAMIC MEMORY USED
 EXECUTION OF GAMESS TERMINATED NORMALLY Tue Apr  2 10:00:41 2019
 DDI: 409440 bytes (0.4 MB / 0 MWords) used by master data server.
Note: The following floating-point exceptions are signalling: IEEE_DENORMAL
Note: The following floating-point exceptions are signalling: IEEE_DENORMAL
Note: The following floating-point exceptions are signalling: IEEE_DENORMAL
Note: The following floating-point exceptions are signalling: IEEE_DENORMAL
Note: The following floating-point exceptions are signalling: IEEE_DENORMAL
Note: The following floating-point exceptions are signalling: IEEE_DENORMAL
Note: The following floating-point exceptions are signalling: IEEE_DENORMAL
Note: The following floating-point exceptions are signalling: IEEE_DENORMAL
Note: The following floating-point exceptions are signalling: IEEE_DENORMAL
Note: The following floating-point exceptions are signalling:Note: The following floating-point exceptions are signalling: IEEE_DENORMAL
 IEEE_DENORMAL
Note: The following floating-point exceptions are signalling: IEEE_DENORMAL
Note: The following floating-point exceptions are signalling: IEEE_DENORMAL
Note: The following floating-point exceptions are signalling: IEEE_DENORMAL

 ----------------------------------------
 CPU timing information for all processes
 ========================================
 0: 0.128 + 0.49 = 0.177
 1: 0.100 + 0.39 = 0.139
 2: 0.111 + 0.40 = 0.152
 3: 0.97 + 0.36 = 0.133
 4: 0.105 + 0.44 = 0.149
 5: 0.99 + 0.39 = 0.138
 6: 0.92 + 0.45 = 0.137
 7: 0.96 + 0.35 = 0.132
 8: 0.93 + 0.49 = 0.142
 9: 0.96 + 0.39 = 0.135
 10: 0.84 + 0.45 = 0.130
 11: 0.90 + 0.39 = 0.129
 12: 0.96 + 0.42 = 0.138
 13: 0.105 + 0.34 = 0.140
 14: 0.95 + 0.40 = 0.136
 15: 0.89 + 0.36 = 0.126
 ----------------------------------------
Note: The following floating-point exceptions are signalling: IEEE_DENORMAL
Note: The following floating-point exceptions are signalling: IEEE_DENORMAL
 ddikick.x: exited gracefully.
unset echo
----- accounting info -----
Files used on the master node node012 were:
-rw-r--r-- 1 mdi0316 at2   99378 Apr  2 10:00 /tmp/gms_bf4_STO_B3LYP_ENE_ZMAT_MP2.dat
-rw-r--r-- 1 mdi0316 at2     925 Apr  2 10:00 /tmp/gms_bf4_STO_B3LYP_ENE_ZMAT_MP2.F05
-rw-r--r-- 1 mdi0316 at2 1799600 Apr  2 10:00 /tmp/gms_bf4_STO_B3LYP_ENE_ZMAT_MP2.F10
ls: No match.
ls: No match.
ls: No match.
Tue Apr  2 10:00:44 CEST 2019
0.191u 0.104s 0:05.62 5.1%	0+0k 1+9io 0pf+0w
