ITEM: TIMESTEP
0
ITEM: NUMBER OF ATOMS
80
ITEM: BOX BOUNDS pp pp pp
-4.0000000000000000e+01 4.0000000000000000e+01
-4.0000000000000000e+01 4.0000000000000000e+01
-4.0000000000000000e+01 4.0000000000000000e+01
ITEM: ATOMS id mass type x y z 
78 67 2 -39.7606 -32.9289 -38.5958 
79 15 3 -38.5677 -30.9368 -39.9535 
80 29 4 39.2864 -33.8146 -35.8472 
60 67 2 18.0709 -15.2414 -33.552 
61 15 3 18.8192 -17.5833 -32.461 
62 29 4 15.7137 -13.6906 -34.6859 
30 67 2 27.8684 -15.3072 -37.487 
31 15 3 27.0469 -13.204 -38.9485 
32 29 4 30.2465 -16.5196 -36.0303 
15 86.8 1 -10.805 -0.25449 -37.2088 
40 15 3 -28.8016 18.875 -38.7411 
39 67 2 -31.0293 20.1598 -39.5295 
36 67 2 -28.4115 27.7147 -35.2537 
37 15 3 -27.6224 25.1594 -34.9669 
38 29 4 -28.6973 29.9993 -37.2402 
17 86.8 1 -5.49156 23.3027 -31.7598 
58 15 3 1.8091 22.1818 -39.0194 
4 86.8 1 -0.921555 31.4227 -38.5649 
9 86.8 1 29.0907 -33.235 -21.3637 
20 86.8 1 28.7539 -12.8915 -27.5041 
33 67 2 9.09742 -33.817 -10.2096 
35 29 4 6.61679 -34.2993 -11.9011 
6 86.8 1 23.8607 -12.786 -14.7544 
50 29 4 -4.69551 -0.787675 -18.2909 
48 67 2 -5.37584 1.57929 -16.5072 
49 15 3 -4.33667 3.64642 -15.1353 
3 86.8 1 -36.8171 14.2976 -19.4253 
34 15 3 11.5826 -34.6999 -9.68115 
24 67 2 2.73372 -12.2714 -3.20626 
25 15 3 5.07382 -12.3746 -4.5284 
26 29 4 0.486709 -13.9528 -2.03528 
71 29 4 1.81825 -11.2423 -4.2634 
51 67 2 16.1497 -11.0825 -4.00909 
52 15 3 18.8343 -11.2316 -3.93576 
53 29 4 13.5794 -12.6292 -3.51032 
70 15 3 -1.37928 -7.40213 -6.44892 
69 67 2 0.730328 -9.01645 -6.02669 
18 86.8 1 -27.1548 9.41929 -9.98672 
7 86.8 1 22.1578 5.48786 -5.50354 
2 86.8 1 7.29414 32.6479 -7.57523 
14 86.8 1 4.3055 -37.4315 9.39068 
1 86.8 1 -39.161 -19.1491 0.890539 
10 86.8 1 -19.8872 -4.86895 7.63172 
16 86.8 1 -8.07335 -8.75822 0.604183 
54 67 2 -16.0867 -30.8016 16.399 
56 29 4 -16.4474 -33.6371 17.4368 
55 15 3 -14.4377 -28.6766 16.3867 
66 67 2 -4.41535 -25.7301 10.722 
67 15 3 -6.19312 -23.7315 10.4389 
68 29 4 -1.77661 -26.5191 12.0111 
5 86.8 1 -0.514897 -13.8698 11.0873 
11 86.8 1 26.393 -12.3701 14.9609 
72 67 2 -17.765 7.00213 12.3528 
73 15 3 -15.2213 7.6051 11.7198 
74 29 4 -19.5763 4.84404 13.4971 
46 15 3 -20.9616 11.0674 10.8534 
45 67 2 -19.2047 11.3133 12.8751 
47 29 4 -17.1077 13.1354 14.112 
8 86.8 1 -17.9652 -21.7039 22.7922 
42 67 2 -1.18749 -27.4951 29.6473 
43 15 3 -3.64463 -27.1462 28.6103 
12 86.8 1 8.19587 -12.022 26.709 
22 15 3 -37.703 -3.17059 29.031 
63 67 2 10.5597 9.819 24.814 
65 29 4 10.8643 6.9113 23.9775 
64 15 3 11.8496 11.9336 25.8624 
19 86.8 1 -6.79422 -30.4281 34.6635 
44 29 4 0.514636 -29.3041 31.4017 
21 67 2 -38.1057 -3.11269 31.6898 
23 29 4 -39.7866 -4.24956 33.9546 
75 67 2 -1.49194 -2.96999 30.3131 
76 15 3 -3.43845 -1.12111 30.1472 
77 29 4 -0.739257 -5.65651 31.5228 
13 86.8 1 18.8545 7.20409 39.2077 
41 29 4 -33.8408 19.7765 39.377 
57 67 2 2.68142 23.1159 38.6138 
59 29 4 4.49549 22.5237 36.2462 
27 67 2 -14.0457 34.5657 35.9556 
28 15 3 -14.3124 35.0711 33.3272 
29 29 4 -14.9319 35.4259 38.7344 
ITEM: TIMESTEP
4
ITEM: NUMBER OF ATOMS
80
ITEM: BOX BOUNDS pp pp pp
-4.0000000000000000e+01 4.0000000000000000e+01
-4.0000000000000000e+01 4.0000000000000000e+01
-4.0000000000000000e+01 4.0000000000000000e+01
ITEM: ATOMS id mass type x y z 
78 67 2 -39.7597 -32.9278 -38.5984 
79 15 3 -38.5668 -30.9355 -39.9554 
80 29 4 39.2843 -33.8169 -35.8424 
60 67 2 18.0732 -15.243 -33.5506 
61 15 3 18.8208 -17.585 -32.4597 
62 29 4 15.7099 -13.687 -34.6881 
30 67 2 27.8663 -15.3057 -37.4882 
31 15 3 27.0454 -13.2024 -38.9498 
32 29 4 30.2505 -16.5224 -36.027 
15 86.8 1 -10.8049 -0.254445 -37.2091 
40 15 3 -28.7993 18.8743 -38.7402 
39 67 2 -31.0266 20.1596 -39.5284 
36 67 2 -28.4111 27.7125 -35.2515 
37 15 3 -27.6218 25.1574 -34.9653 
38 29 4 -28.6981 30.0041 -37.2431 
17 86.8 1 -5.49174 23.3023 -31.7602 
58 15 3 1.80758 22.1821 -39.0169 
4 86.8 1 -0.92146 31.4224 -38.5658 
9 86.8 1 29.0907 -33.2351 -21.3641 
20 86.8 1 28.7536 -12.8919 -27.5058 
33 67 2 9.10006 -33.8169 -10.2079 
35 29 4 6.61192 -34.2997 -11.9038 
6 86.8 1 23.8599 -12.7861 -14.754 
50 29 4 -4.69517 -0.792116 -18.2943 
48 67 2 -5.37643 1.58185 -16.5054 
49 15 3 -4.33668 3.64863 -15.1339 
3 86.8 1 -36.8172 14.298 -19.4259 
34 15 3 11.585 -34.7002 -9.68001 
24 67 2 2.7346 -12.269 -3.20904 
25 15 3 5.07555 -12.3735 -4.52922 
26 29 4 0.481982 -13.9547 -2.03267 
71 29 4 1.82169 -11.2471 -4.25943 
51 67 2 16.1529 -11.081 -4.0096 
52 15 3 18.8372 -11.2308 -3.93611 
53 29 4 13.5747 -12.6313 -3.50962 
70 15 3 -1.38079 -7.40055 -6.4496 
69 67 2 0.728963 -9.01475 -6.02762 
18 86.8 1 -27.1543 9.41933 -9.98643 
7 86.8 1 22.1573 5.48773 -5.50339 
2 86.8 1 7.29406 32.6483 -7.57532 
14 86.8 1 4.30511 -37.4311 9.39085 
1 86.8 1 -39.1609 -19.1493 0.890648 
10 86.8 1 -19.8872 -4.86807 7.63231 
16 86.8 1 -8.072 -8.75834 0.603125 
54 67 2 -16.0863 -30.7985 16.3982 
56 29 4 -16.4488 -33.6422 17.4383 
55 15 3 -14.437 -28.674 16.3863 
66 67 2 -4.41782 -25.7289 10.7207 
67 15 3 -6.19507 -23.7301 10.4381 
68 29 4 -1.77169 -26.5212 12.0131 
5 86.8 1 -0.51482 -13.8703 11.0869 
11 86.8 1 26.3929 -12.3701 14.9612 
72 67 2 -17.7627 7.00302 12.3513 
73 15 3 -15.219 7.60558 11.7188 
74 29 4 -19.5802 4.83975 13.499 
46 15 3 -20.9638 11.0668 10.8516 
45 67 2 -19.2074 11.3124 12.8738 
47 29 4 -17.1038 13.1386 14.1147 
8 86.8 1 -17.965 -21.7046 22.792 
42 67 2 -1.18963 -27.4935 29.6459 
43 15 3 -3.64682 -27.1452 28.6093 
12 86.8 1 8.19556 -12.0217 26.7095 
22 15 3 -37.7019 -3.17006 29.0286 
63 67 2 10.5597 9.82188 24.8149 
65 29 4 10.8642 6.90589 23.9757 
64 15 3 11.8501 11.936 25.8634 
19 86.8 1 -6.79351 -30.4279 34.6625 
44 29 4 0.518192 -29.307 31.405 
21 67 2 -38.1042 -3.11169 31.6873 
23 29 4 -39.7893 -4.25119 33.9593 
75 67 2 -1.49285 -2.96744 30.312 
76 15 3 -3.43964 -1.11907 30.1466 
77 29 4 -0.737055 -5.66155 31.5247 
13 86.8 1 18.8543 7.20412 39.2074 
41 29 4 -33.8463 19.7764 39.375 
57 67 2 2.67953 23.1166 38.6166 
59 29 4 4.49845 22.5236 36.2418 
27 67 2 -14.0447 34.5651 35.9528 
28 15 3 -14.3118 35.0709 33.3247 
29 29 4 -14.9328 35.4269 38.74 
ITEM: TIMESTEP
0
ITEM: NUMBER OF ATOMS
80
ITEM: BOX BOUNDS pp pp pp
-4.0000000000000000e+01 4.0000000000000000e+01
-4.0000000000000000e+01 4.0000000000000000e+01
-4.0000000000000000e+01 4.0000000000000000e+01
ITEM: ATOMS id mass type x y z 
78 67 2 -39.7597 -32.9278 -38.5984 
79 15 3 -38.5668 -30.9355 -39.9554 
80 29 4 39.2843 -33.8169 -35.8424 
60 67 2 18.0732 -15.243 -33.5506 
61 15 3 18.8208 -17.585 -32.4597 
62 29 4 15.7099 -13.687 -34.6881 
30 67 2 27.8663 -15.3057 -37.4882 
31 15 3 27.0454 -13.2024 -38.9498 
32 29 4 30.2505 -16.5224 -36.027 
15 86.8 1 -10.8049 -0.254445 -37.2091 
40 15 3 -28.7993 18.8743 -38.7402 
39 67 2 -31.0266 20.1596 -39.5284 
36 67 2 -28.4111 27.7125 -35.2515 
37 15 3 -27.6218 25.1574 -34.9653 
17 86.8 1 -5.49174 23.3023 -31.7602 
58 15 3 1.80758 22.1821 -39.0169 
38 29 4 -28.6981 30.0041 -37.2431 
4 86.8 1 -0.92146 31.4224 -38.5658 
9 86.8 1 29.0907 -33.2351 -21.3641 
20 86.8 1 28.7536 -12.8919 -27.5058 
33 67 2 9.10006 -33.8169 -10.2079 
35 29 4 6.61192 -34.2997 -11.9038 
6 86.8 1 23.8599 -12.7861 -14.754 
50 29 4 -4.69517 -0.792116 -18.2943 
48 67 2 -5.37643 1.58185 -16.5054 
49 15 3 -4.33668 3.64863 -15.1339 
3 86.8 1 -36.8172 14.298 -19.4259 
34 15 3 11.585 -34.7002 -9.68001 
24 67 2 2.7346 -12.269 -3.20904 
25 15 3 5.07555 -12.3735 -4.52922 
26 29 4 0.481982 -13.9547 -2.03267 
71 29 4 1.82169 -11.2471 -4.25943 
51 67 2 16.1529 -11.081 -4.0096 
52 15 3 18.8372 -11.2308 -3.93611 
53 29 4 13.5747 -12.6313 -3.50962 
70 15 3 -1.38079 -7.40055 -6.4496 
69 67 2 0.728963 -9.01475 -6.02762 
18 86.8 1 -27.1543 9.41933 -9.98643 
7 86.8 1 22.1573 5.48773 -5.50339 
2 86.8 1 7.29406 32.6483 -7.57532 
14 86.8 1 4.30511 -37.4311 9.39085 
1 86.8 1 -39.1609 -19.1493 0.890648 
10 86.8 1 -19.8872 -4.86807 7.63231 
16 86.8 1 -8.072 -8.75834 0.603125 
54 67 2 -16.0863 -30.7985 16.3982 
56 29 4 -16.4488 -33.6422 17.4383 
55 15 3 -14.437 -28.674 16.3863 
66 67 2 -4.41782 -25.7289 10.7207 
67 15 3 -6.19507 -23.7301 10.4381 
68 29 4 -1.77169 -26.5212 12.0131 
5 86.8 1 -0.51482 -13.8703 11.0869 
11 86.8 1 26.3929 -12.3701 14.9612 
72 67 2 -17.7627 7.00302 12.3513 
73 15 3 -15.219 7.60558 11.7188 
74 29 4 -19.5802 4.83975 13.499 
46 15 3 -20.9638 11.0668 10.8516 
45 67 2 -19.2074 11.3124 12.8738 
47 29 4 -17.1038 13.1386 14.1147 
8 86.8 1 -17.965 -21.7046 22.792 
42 67 2 -1.18963 -27.4935 29.6459 
43 15 3 -3.64682 -27.1452 28.6093 
12 86.8 1 8.19556 -12.0217 26.7095 
22 15 3 -37.7019 -3.17006 29.0286 
63 67 2 10.5597 9.82188 24.8149 
65 29 4 10.8642 6.90589 23.9757 
64 15 3 11.8501 11.936 25.8634 
19 86.8 1 -6.79351 -30.4279 34.6625 
44 29 4 0.518192 -29.307 31.405 
21 67 2 -38.1042 -3.11169 31.6873 
23 29 4 -39.7893 -4.25119 33.9593 
75 67 2 -1.49285 -2.96744 30.312 
76 15 3 -3.43964 -1.11907 30.1466 
77 29 4 -0.737055 -5.66155 31.5247 
13 86.8 1 18.8543 7.20412 39.2074 
41 29 4 -33.8463 19.7764 39.375 
57 67 2 2.67953 23.1166 38.6166 
59 29 4 4.49845 22.5236 36.2418 
27 67 2 -14.0447 34.5651 35.9528 
28 15 3 -14.3118 35.0709 33.3247 
29 29 4 -14.9328 35.4269 38.74 
ITEM: TIMESTEP
2000
ITEM: NUMBER OF ATOMS
80
ITEM: BOX BOUNDS pp pp pp
-3.9091472522078291e+01 3.9091472522078291e+01
-3.9091472522078291e+01 3.9091472522078291e+01
-3.9091472522078291e+01 3.9091472522078291e+01
ITEM: ATOMS id mass type x y z 
78 67 2 -38.8884 -31.8167 -37.8034 
79 15 3 -37.1229 -30.1416 -38.9578 
80 29 4 38.3281 -32.9642 -35.1408 
61 15 3 18.7006 -17.1407 -31.771 
62 29 4 15.2143 -13.5309 -33.9259 
60 67 2 17.7378 -14.8825 -32.879 
30 67 2 27.2345 -14.9268 -36.2764 
31 15 3 26.3918 -13.1115 -38.0762 
32 29 4 29.699 -16.2875 -35.1207 
15 86.8 1 -10.8933 -0.244431 -36.1912 
40 15 3 -28.2152 18.4882 -37.9696 
39 67 2 -30.3989 19.8303 -38.7965 
36 67 2 -27.8385 26.9153 -34.6167 
37 15 3 -26.4708 24.64 -34.163 
17 86.8 1 -5.5595 22.7012 -30.8613 
58 15 3 2.21167 21.8446 -38.0197 
38 29 4 -27.8322 29.5333 -36.2131 
4 86.8 1 -0.748827 30.8022 -37.7641 
9 86.8 1 28.3613 -32.6319 -20.8049 
20 86.8 1 27.9179 -12.7347 -26.9386 
50 29 4 -4.64605 -0.794041 -17.8782 
3 86.8 1 -36.117 13.9492 -19.0092 
33 67 2 8.99844 -33.1776 -9.97647 
35 29 4 6.54329 -33.7132 -11.7056 
34 15 3 11.401 -34.1479 -9.25439 
70 15 3 -1.18856 -7.25836 -5.68778 
69 67 2 0.824163 -9.01381 -5.5499 
6 86.8 1 23.4811 -12.4706 -14.329 
48 67 2 -5.21303 1.68663 -16.1976 
49 15 3 -4.19199 3.30304 -14.2972 
18 86.8 1 -26.4744 9.35328 -9.66199 
2 86.8 1 7.08584 32.2741 -7.4089 
1 86.8 1 -38.2143 -18.6908 1.00541 
16 86.8 1 -7.74509 -8.58565 0.409566 
24 67 2 2.27014 -11.9161 -3.37449 
25 15 3 4.61725 -11.6149 -4.65707 
26 29 4 0.572939 -13.735 -1.63664 
71 29 4 2.05332 -11.1437 -3.85425 
51 67 2 15.6137 -10.7599 -3.81976 
53 29 4 12.9649 -12.1938 -3.30881 
52 15 3 18.2853 -11.0587 -4.05748 
7 86.8 1 21.9091 5.43972 -5.5152 
54 67 2 -15.6616 -30.0881 15.8895 
14 86.8 1 4.1338 -36.888 9.32872 
55 15 3 -14.7555 -27.5909 16.3264 
67 15 3 -5.89009 -23.1414 9.69456 
66 67 2 -4.29484 -25.1746 10.4587 
68 29 4 -1.68319 -25.9381 11.8527 
5 86.8 1 -0.512011 -13.8837 10.8013 
11 86.8 1 25.6797 -11.9053 14.8723 
10 86.8 1 -19.4836 -4.94754 7.59735 
74 29 4 -19.4255 4.9406 13.6675 
72 67 2 -17.5463 6.66403 11.9952 
46 15 3 -19.6855 10.6276 10.0081 
45 67 2 -18.7187 11.2473 12.443 
73 15 3 -14.9756 7.16231 11.3667 
47 29 4 -16.6932 12.9765 13.9439 
56 29 4 -15.9154 -32.876 17.0906 
8 86.8 1 -17.3349 -21.5136 21.946 
43 15 3 -3.34817 -26.2875 27.5571 
12 86.8 1 8.1896 -11.4183 26.2 
63 67 2 10.4963 9.76865 24.0048 
65 29 4 10.6969 6.81128 23.2897 
64 15 3 11.2164 11.6348 25.8138 
19 86.8 1 -6.63877 -29.7026 33.9266 
44 29 4 0.670119 -28.6646 30.4154 
42 67 2 -1.04871 -26.6301 28.9218 
22 15 3 -37.2176 -2.66739 28.3241 
21 67 2 -37.2689 -3.20644 30.9678 
23 29 4 -39.0428 -4.01822 33.3158 
75 67 2 -1.447 -2.73799 29.7453 
76 15 3 -3.62245 -1.25014 29.1806 
77 29 4 -0.518659 -5.52778 30.5487 
13 86.8 1 18.2055 6.8852 38.1427 
41 29 4 -33.2353 19.5087 38.3088 
57 67 2 2.67914 22.4884 37.5902 
59 29 4 4.61981 22.1495 35.2668 
27 67 2 -13.7342 33.5682 35.0293 
28 15 3 -14.3542 33.8218 32.4191 
29 29 4 -14.5528 34.3237 37.8746 
ITEM: TIMESTEP
4000
ITEM: NUMBER OF ATOMS
80
ITEM: BOX BOUNDS pp pp pp
-3.6011288987551332e+01 3.6011288987551332e+01
-3.6011288987551332e+01 3.6011288987551332e+01
-3.6011288987551332e+01 3.6011288987551332e+01
ITEM: ATOMS id mass type x y z 
78 67 2 -35.8286 -29.0205 -34.8783 
79 15 3 -33.7763 -27.6494 -35.9437 
80 29 4 35.175 -30.3744 -32.3438 
61 15 3 17.5252 -15.8521 -29.1321 
62 29 4 13.8004 -12.4933 -31.3058 
60 67 2 16.4228 -13.7 -30.3184 
30 67 2 25.1024 -13.6903 -33.1477 
31 15 3 24.1753 -12.0988 -35.1137 
32 29 4 27.5643 -15.1806 -32.1257 
15 86.8 1 -10.2631 -0.218702 -33.2382 
40 15 3 -25.9222 16.9037 -34.9957 
39 67 2 -28.05 18.3112 -35.8523 
36 67 2 -25.6183 24.6822 -32.0126 
37 15 3 -24.0769 22.6783 -31.1205 
17 86.8 1 -5.2734 20.837 -28.3289 
58 15 3 2.20042 20.3917 -34.7584 
38 29 4 -25.5826 27.4892 -33.1901 
4 86.8 1 -0.574677 28.4151 -34.9022 
9 86.8 1 26.0773 -30.1741 -19.1419 
20 86.8 1 25.5624 -11.8578 -24.9853 
50 29 4 -4.36125 -0.8473 -16.5921 
3 86.8 1 -33.3691 12.8582 -17.5761 
33 67 2 8.40163 -30.6825 -9.17022 
35 29 4 5.95374 -31.2363 -10.9072 
34 15 3 10.7195 -31.7115 -8.2825 
6 86.8 1 21.6852 -11.4763 -13.106 
48 67 2 -4.75946 1.68971 -14.9499 
49 15 3 -3.9238 3.03135 -12.766 
18 86.8 1 -24.3037 8.72466 -8.8089 
2 86.8 1 6.49215 30.0261 -6.83738 
1 86.8 1 -35.1538 -17.2143 1.03085 
16 86.8 1 -6.92497 -7.93646 0.170034 
70 15 3 -1.26946 -6.5089 -4.75052 
69 67 2 0.769584 -8.23218 -4.98536 
24 67 2 1.72378 -10.9975 -2.99495 
25 15 3 3.89854 -10.191 -4.35394 
26 29 4 0.604598 -13.0247 -1.02205 
71 29 4 2.26682 -10.5563 -3.72821 
51 67 2 14.361 -9.8207 -3.46486 
53 29 4 11.6975 -11.1995 -2.92864 
52 15 3 16.9824 -10.2343 -3.9476 
7 86.8 1 20.3329 5.05699 -5.16713 
54 67 2 -14.3611 -27.6104 14.5915 
14 86.8 1 3.72796 -34.1761 8.71461 
55 15 3 -14.2293 -24.9898 15.1962 
67 15 3 -5.33178 -21.1351 8.53286 
66 67 2 -3.95151 -23.1822 9.60313 
68 29 4 -1.37721 -23.9452 11.0472 
5 86.8 1 -0.473852 -13.0632 9.89653 
11 86.8 1 23.5697 -10.831 13.9001 
10 86.8 1 -17.9752 -4.6296 7.1395 
74 29 4 -18.1705 4.53477 12.9464 
72 67 2 -16.2587 5.87043 10.9762 
46 15 3 -17.7629 9.81334 8.75936 
45 67 2 -17.2589 10.5923 11.2795 
73 15 3 -13.6702 6.13485 10.283 
47 29 4 -15.324 12.1531 13.0452 
56 29 4 -14.6087 -30.4134 15.7764 
8 86.8 1 -15.7904 -20.0927 19.957 
43 15 3 -3.13817 -23.9598 25.1329 
12 86.8 1 7.64747 -10.2651 24.234 
63 67 2 9.85978 9.12908 22.0119 
65 29 4 9.87981 6.18057 21.2376 
64 15 3 10.0013 10.8443 24.0891 
19 86.8 1 -6.06785 -27.3267 31.2269 
44 29 4 0.800361 -26.5013 27.9404 
42 67 2 -0.93444 -24.3674 26.6263 
22 15 3 -34.4123 -2.11488 25.9564 
21 67 2 -34.3827 -3.07661 28.4771 
75 67 2 -1.36336 -2.4344 27.496 
76 15 3 -3.5472 -1.09903 26.6482 
77 29 4 -0.199761 -5.2107 27.9809 
23 29 4 35.9191 -3.63401 30.9295 
13 86.8 1 16.6019 6.23518 34.9858 
41 29 4 -30.9029 18.0836 35.116 
57 67 2 2.4789 20.6691 34.5986 
59 29 4 4.47532 20.5396 32.2931 
27 67 2 -12.6069 30.7661 32.1807 
28 15 3 -13.433 30.8777 29.6224 
29 29 4 -13.3574 31.4525 35.0546 
ITEM: TIMESTEP
6000
ITEM: NUMBER OF ATOMS
80
ITEM: BOX BOUNDS pp pp pp
-3.1167473433289683e+01 3.1167473433289683e+01
-3.1167473433289683e+01 3.1167473433289683e+01
-3.1167473433289683e+01 3.1167473433289683e+01
ITEM: ATOMS id mass type x y z 
78 67 2 -31.0092 -24.8942 -30.2401 
80 29 4 30.2442 -26.3773 -27.8067 
61 15 3 15.4887 -13.8753 -24.8958 
62 29 4 11.6381 -10.7387 -27.1787 
60 67 2 14.3114 -11.8485 -26.2201 
30 67 2 21.7266 -11.7731 -28.4606 
31 15 3 20.7582 -10.3018 -30.4966 
32 29 4 24.151 -13.3341 -27.4655 
15 86.8 1 -9.03131 -0.180742 -28.7213 
20 86.8 1 21.9834 -10.3897 -21.8996 
40 15 3 -22.2306 14.345 -30.2237 
39 67 2 -24.2963 15.8289 -31.101 
37 15 3 -20.6277 19.4641 -26.4129 
17 86.8 1 -4.68741 17.9573 -24.4791 
58 15 3 1.85298 17.988 -29.6516 
36 67 2 -22.0896 21.2842 -27.7356 
38 29 4 -22.1905 24.1917 -28.645 
4 86.8 1 -0.407712 24.5839 -30.3546 
9 86.8 1 22.5352 -26.2003 -16.5839 
50 29 4 -3.84149 -0.95061 -14.5878 
6 86.8 1 18.7353 -9.93176 -11.243 
48 67 2 -4.11387 1.60731 -12.9525 
49 15 3 -3.44422 2.8125 -10.6371 
3 86.8 1 -28.9497 11.1626 -15.3115 
33 67 2 7.39119 -26.667 -7.89448 
35 29 4 4.93832 -27.2159 -9.62339 
34 15 3 9.63216 -27.7454 -6.877 
26 29 4 0.465011 -11.601 -0.394455 
70 15 3 -1.55566 -5.3518 -3.79749 
69 67 2 0.575337 -6.92688 -4.20061 
24 67 2 1.31694 -9.57404 -2.48094 
25 15 3 3.37908 -8.66431 -3.90594 
71 29 4 1.94914 -9.45889 -3.19888 
53 29 4 9.87594 -9.75715 -2.40444 
51 67 2 12.5368 -8.39328 -2.9797 
52 15 3 15.1033 -8.85387 -3.65978 
18 86.8 1 -20.9295 7.6305 -7.5335 
7 86.8 1 17.6664 4.39951 -4.51944 
2 86.8 1 5.58999 26.2358 -5.93802 
14 86.8 1 3.1392 -29.6866 7.64353 
1 86.8 1 -30.3807 -14.911 0.975662 
67 15 3 -4.63917 -17.9603 7.02901 
66 67 2 -3.42894 -20.0169 8.26879 
68 29 4 -0.883138 -20.8324 9.72965 
5 86.8 1 -0.410384 -11.5457 8.48908 
10 86.8 1 -15.5645 -3.98178 6.32645 
16 86.8 1 -5.70846 -6.89703 -0.0949916 
72 67 2 -14.0984 4.75813 9.41452 
46 15 3 -15.3282 8.69341 7.00359 
45 67 2 -15.0058 9.39517 9.57606 
73 15 3 -11.5285 4.69347 8.62176 
54 67 2 -12.3974 -23.7053 12.6497 
55 15 3 -12.8545 -21.1243 13.2587 
56 29 4 -12.6331 -26.5648 13.6831 
8 86.8 1 -13.516 -17.6612 17.0485 
11 86.8 1 20.3335 -9.27285 12.1936 
74 29 4 -16.0414 3.71524 11.519 
63 67 2 8.68813 8.01021 19.0169 
65 29 4 8.58903 5.09769 18.1264 
47 29 4 -13.143 10.8028 11.5368 
79 15 3 -28.8253 -23.7164 31.0614 
19 86.8 1 -5.16483 -23.612 26.9373 
42 67 2 -0.834478 -20.9545 23.0565 
44 29 4 0.903533 -23.1419 24.2732 
43 15 3 -3.0421 -20.4894 21.5878 
22 15 3 -29.796 -1.56035 22.1509 
21 67 2 -29.789 -2.74599 24.5716 
77 29 4 0.155605 -4.76688 24.1391 
75 67 2 -1.20625 -2.05345 23.8651 
76 15 3 -3.36488 -0.771976 22.8842 
12 86.8 1 6.65841 -8.6852 21.0771 
23 29 4 30.9169 -3.14584 27.1137 
64 15 3 8.48183 9.65324 21.1439 
13 86.8 1 14.2367 5.32605 30.142 
41 29 4 -27.164 15.7146 30.2049 
57 67 2 2.10401 17.8961 30.0042 
59 29 4 4.11328 17.9094 27.7108 
27 67 2 -10.811 26.51 27.7734 
28 15 3 -11.7423 26.5745 25.2511 
29 29 4 -11.5069 27.1626 30.6674 
ITEM: TIMESTEP
8000
ITEM: NUMBER OF ATOMS
80
ITEM: BOX BOUNDS pp pp pp
-2.6104573175892781e+01 2.6104573175892781e+01
-2.6104573175892781e+01 2.6104573175892781e+01
-2.6104573175892781e+01 2.6104573175892781e+01
ITEM: ATOMS id mass type x y z 
78 67 2 -25.9762 -20.6914 -25.3777 
80 29 4 25.0974 -22.2301 -23.0037 
61 15 3 13.2917 -11.7917 -20.3956 
62 29 4 9.40018 -8.86537 -22.858 
60 67 2 12.094 -9.91446 -21.9013 
30 67 2 18.1791 -9.76989 -23.627 
32 29 4 20.5653 -11.3524 -22.5961 
20 86.8 1 18.2851 -8.83062 -18.7076 
31 15 3 17.246 -8.33777 -25.7007 
15 86.8 1 -7.64478 -0.141984 -24.0546 
40 15 3 -18.3544 11.6266 -25.1941 
39 67 2 -20.3507 13.1899 -26.0852 
17 86.8 1 -4.02114 14.9693 -20.5154 
58 15 3 1.34233 15.4707 -24.3235 
37 15 3 -17.1054 16.0786 -21.5447 
36 67 2 -18.4049 17.7743 -23.1714 
38 29 4 -18.6816 20.7054 -23.9782 
4 86.8 1 -0.272855 20.5318 -25.5876 
35 29 4 3.84403 -22.9736 -8.26756 
33 67 2 6.30661 -22.4395 -6.55546 
34 15 3 8.47562 -23.5726 -5.45077 
9 86.8 1 18.8537 -22.0047 -13.9388 
6 86.8 1 15.5901 -8.32562 -9.3139 
50 29 4 -3.26521 -1.07091 -12.4868 
48 67 2 -3.47635 1.4996 -10.8678 
49 15 3 -2.90461 2.63338 -8.49625 
3 86.8 1 -24.2889 9.40275 -12.9502 
18 86.8 1 -17.4109 6.44446 -6.22167 
1 86.8 1 -25.4052 -12.5132 0.880346 
26 29 4 0.182479 -10.0763 0.236312 
16 86.8 1 -4.42195 -5.79927 -0.355247 
69 67 2 0.234111 -5.55133 -3.4247 
24 67 2 0.995628 -8.13206 -1.95079 
25 15 3 3.07983 -7.25311 -3.43047 
71 29 4 1.6973 -8.11628 -2.63418 
53 29 4 8.04916 -8.28597 -1.8712 
51 67 2 10.7037 -6.93317 -2.50854 
52 15 3 13.229 -7.3442 -3.34527 
70 15 3 -1.95756 -4.09192 -2.91874 
7 86.8 1 14.7982 3.68934 -3.79914 
2 86.8 1 4.66177 22.1819 -5.00233 
54 67 2 -10.4042 -19.6036 10.6638 
55 15 3 -11.1364 -17.1052 11.3296 
56 29 4 -10.5729 -22.5306 11.4845 
68 29 4 -0.367867 -17.6118 8.34174 
14 86.8 1 2.53912 -24.8975 6.48486 
66 67 2 -2.87333 -16.679 6.87749 
8 86.8 1 -11.1981 -15.073 14.0663 
67 15 3 -4.01925 -14.6159 5.58921 
5 86.8 1 -0.345969 -9.88001 7.01352 
11 86.8 1 16.9847 -7.69585 10.3393 
10 86.8 1 -13.024 -3.22651 5.44653 
72 67 2 -11.7821 3.64579 7.7934 
73 15 3 -9.29258 3.26246 6.8556 
74 29 4 -13.7887 2.79952 9.92211 
65 29 4 7.24826 3.91926 14.9412 
46 15 3 -12.9746 7.55703 5.22433 
45 67 2 -12.6693 8.06306 7.8441 
47 29 4 -10.8474 9.35517 9.9195 
79 15 3 -23.7486 -19.5944 25.8052 
19 86.8 1 -4.2103 -19.7307 22.4218 
42 67 2 -0.77052 -17.4497 19.3502 
44 29 4 0.963605 -19.6579 20.5336 
43 15 3 -3.05064 -16.9423 18.018 
12 86.8 1 5.5576 -7.12289 17.7578 
22 15 3 -24.9241 -1.10768 18.1112 
21 67 2 -24.9567 -2.35226 20.4976 
75 67 2 -1.01616 -1.68495 20.045 
76 15 3 -3.1813 -0.450508 19.0327 
77 29 4 0.472596 -4.33743 20.1785 
13 86.8 1 11.825 4.42387 25.123 
23 29 4 25.7053 -2.67916 23.101 
41 29 4 -23.2272 13.1916 25.1209 
57 67 2 1.67599 15.041 25.2531 
59 29 4 3.68778 15.1275 22.97 
63 67 2 7.3948 6.79951 15.9182 
64 15 3 7.06814 8.39831 18.0576 
27 67 2 -8.92277 22.127 23.1986 
28 15 3 -9.86765 22.2065 20.6833 
29 29 4 -9.5628 22.769 26.1085 
ITEM: TIMESTEP
10000
ITEM: NUMBER OF ATOMS
80
ITEM: BOX BOUNDS pp pp pp
-2.1649886573489056e+01 2.1649886573489056e+01
-2.1649886573489056e+01 2.1649886573489056e+01
-2.1649886573489056e+01 2.1649886573489056e+01
ITEM: ATOMS id mass type x y z 
78 67 2 -21.5613 -17.0608 -21.0985 
80 29 4 20.5811 -18.6021 -18.735 
9 86.8 1 15.6287 -18.2851 -11.6289 
15 86.8 1 -6.36464 -0.109843 -19.9811 
62 29 4 7.44106 -7.20087 -19.055 
60 67 2 10.1482 -8.21283 -18.0812 
61 15 3 11.3571 -9.90735 -16.3763 
30 67 2 15.0337 -7.99513 -19.3978 
32 29 4 17.3905 -9.57986 -18.2861 
20 86.8 1 15.0575 -7.45534 -15.9325 
31 15 3 14.1718 -6.56189 -21.5054 
40 15 3 -14.923 9.21688 -20.7308 
39 67 2 -16.8587 10.8499 -21.6386 
37 15 3 -14.0136 13.0856 -17.3023 
36 67 2 -15.1892 14.6977 -19.1055 
38 29 4 -15.5965 17.6069 -19.9232 
17 86.8 1 -3.39674 12.3621 -17.0659 
29 29 4 -7.85593 18.9591 -21.1928 
4 86.8 1 -0.177051 16.924 -21.3715 
58 15 3 0.78853 13.2935 -19.6603 
35 29 4 2.84956 -19.21 -7.07164 
33 67 2 5.33304 -18.7056 -5.37483 
34 15 3 7.45042 -19.8852 -4.20851 
50 29 4 -2.74223 -1.19421 -10.6427 
16 86.8 1 -3.24873 -4.79679 -0.602991 
70 15 3 -2.42744 -3.1053 -2.06145 
69 67 2 -0.166732 -4.40927 -2.70391 
24 67 2 0.7758 -6.82283 -1.52334 
25 15 3 2.89043 -6.04884 -2.99624 
71 29 4 1.52095 -6.89151 -2.16451 
53 29 4 6.49928 -7.03008 -1.40958 
51 67 2 9.1251 -5.6499 -2.11733 
6 86.8 1 12.7866 -6.91466 -7.62469 
52 15 3 11.5976 -6.03293 -3.1093 
3 86.8 1 -20.159 7.86026 -10.8753 
18 86.8 1 -14.3217 5.37375 -5.08058 
48 67 2 -2.93282 1.39095 -9.03678 
49 15 3 -2.4122 2.51507 -6.64815 
7 86.8 1 12.2258 3.04916 -3.13882 
2 86.8 1 3.85837 18.5598 -4.18393 
54 67 2 -8.71354 -15.9431 8.98036 
55 15 3 -9.29209 -13.5357 10.0373 
56 29 4 -8.73948 -18.9462 9.51515 
68 29 4 0.0821809 -14.7858 7.10692 
66 67 2 -2.39236 -13.7442 5.65993 
67 15 3 -3.4731 -11.6011 4.44357 
14 86.8 1 2.02329 -20.6234 5.44075 
1 86.8 1 -21.0362 -10.4083 0.77114 
5 86.8 1 -0.300694 -8.3661 5.70609 
10 86.8 1 -10.7665 -2.50785 4.6527 
26 29 4 -0.122237 -8.65927 0.748773 
11 86.8 1 14.0631 -6.33977 8.66232 
74 29 4 -11.7915 1.98692 8.46925 
46 15 3 -10.9713 6.48357 3.70732 
72 67 2 -9.7258 2.73975 6.35489 
73 15 3 -7.34563 2.07291 5.29166 
45 67 2 -10.623 6.81009 6.35448 
47 29 4 -8.80605 8.03318 8.47675 
79 15 3 -19.3165 -15.9712 21.1961 
8 86.8 1 -9.20472 -12.8124 11.3995 
19 86.8 1 -3.36397 -16.3078 18.4269 
42 67 2 -0.744647 -14.4116 16.1062 
43 15 3 -3.12862 -13.885 14.9759 
44 29 4 0.994243 -16.617 17.2943 
22 15 3 -20.6661 -0.766304 14.5219 
21 67 2 -20.6693 -1.98975 16.919 
75 67 2 -0.832147 -1.37738 16.6722 
76 15 3 -3.03573 -0.178605 15.6987 
12 86.8 1 4.54045 -5.80251 14.8246 
77 29 4 0.746978 -3.98591 16.7095 
23 29 4 21.1143 -2.27501 19.5496 
65 29 4 6.07068 2.84264 12.1828 
13 86.8 1 9.74133 3.66209 20.7361 
63 67 2 6.21659 5.71238 13.2042 
64 15 3 5.92289 7.27043 15.3785 
41 29 4 -19.7449 10.9544 20.6816 
27 67 2 -7.24594 18.3053 19.1913 
28 15 3 -8.18984 18.4565 16.6764 
57 67 2 1.26326 12.553 21.0966 
59 29 4 3.29946 12.6636 18.8285 
ITEM: TIMESTEP
12000
ITEM: NUMBER OF ATOMS
80
ITEM: BOX BOUNDS pp pp pp
-1.8421975044333127e+01 1.8421975044333127e+01
-1.8421975044333127e+01 1.8421975044333127e+01
-1.8421975044333127e+01 1.8421975044333127e+01
ITEM: ATOMS id mass type x y z 
78 67 2 -18.37 -14.4617 -17.9944 
80 29 4 17.3045 -15.9775 -15.618 
9 86.8 1 13.3012 -15.5751 -9.97035 
60 67 2 8.76132 -6.97271 -15.3081 
61 15 3 10.0157 -8.43358 -13.4262 
30 67 2 12.7343 -6.67915 -16.2875 
32 29 4 15.049 -8.274 -15.0986 
20 86.8 1 12.7223 -6.48837 -14.0021 
15 86.8 1 -5.41152 -0.086248 -17.0497 
50 29 4 -2.35725 -1.29053 -9.30728 
48 67 2 -2.54504 1.30582 -7.71378 
62 29 4 6.03544 -6.00918 -16.2865 
31 15 3 11.9291 -5.27005 18.4082 
6 86.8 1 10.73 -5.8896 -6.38535 
40 15 3 -12.4316 7.46545 -17.4616 
3 86.8 1 -17.1482 6.74925 -9.38271 
39 67 2 -14.3172 9.1435 -18.3987 
37 15 3 -11.7708 10.9119 -14.2301 
36 67 2 -12.8762 12.4628 -16.1338 
38 29 4 -13.3584 15.3467 -17.0054 
29 29 4 -6.6037 16.2189 -17.6285 
17 86.8 1 -2.92097 10.4907 -14.5923 
4 86.8 1 -0.115207 14.26 -18.2947 
58 15 3 0.260272 11.8107 -16.3567 
1 86.8 1 -17.8714 -8.88622 0.681618 
35 29 4 2.11279 -16.4719 -6.20069 
33 67 2 4.61542 -16.0068 -4.51711 
66 67 2 -2.03275 -11.6034 4.7852 
67 15 3 -3.05025 -9.35446 3.71085 
68 29 4 0.400921 -12.7831 6.19822 
14 86.8 1 1.65313 -17.4926 4.67467 
5 86.8 1 -0.2954 -7.26022 4.72729 
26 29 4 -0.311861 -7.51564 1.06863 
34 15 3 6.69138 -17.2224 -3.30757 
18 86.8 1 -12.0786 4.58654 -4.25336 
10 86.8 1 -9.10231 -1.93453 4.07767 
46 15 3 -9.54471 5.62293 2.6327 
72 67 2 -8.23389 2.1075 5.30444 
45 67 2 -9.14459 5.85063 5.2858 
16 86.8 1 -2.34137 -3.84429 -0.926228 
70 15 3 -3.00376 -3.0309 -1.02268 
69 67 2 -0.609068 -3.80157 -1.96734 
24 67 2 0.684037 -5.85354 -1.29219 
25 15 3 2.8727 -5.14278 -2.68825 
71 29 4 1.50794 -5.98833 -1.83104 
53 29 4 5.38533 -6.10799 -1.09234 
49 15 3 -2.04372 2.44571 -5.32704 
73 15 3 -5.98373 1.23537 4.11109 
51 67 2 8.00095 -4.73246 -1.85389 
52 15 3 10.3814 -5.09026 -3.05885 
7 86.8 1 10.3337 2.57578 -2.64645 
2 86.8 1 3.28703 15.925 -3.59659 
54 67 2 -7.49209 -13.3949 7.60285 
55 15 3 -7.70812 -10.969 8.74933 
56 29 4 -7.3962 -16.4014 8.15663 
79 15 3 -16.1274 -13.3455 17.8627 
8 86.8 1 -7.81426 -11.0531 9.65595 
19 86.8 1 -2.7359 -13.8016 15.5007 
42 67 2 -0.761578 -12.2547 13.7789 
43 15 3 -3.23451 -11.717 12.8616 
44 29 4 1.01571 -14.4298 14.9714 
74 29 4 -10.3554 1.41379 7.38568 
22 15 3 -17.6035 -0.56717 11.8943 
21 67 2 -17.5521 -1.7192 14.3266 
75 67 2 -0.680579 -1.17246 14.2283 
76 15 3 -2.93778 -0.00998691 13.3335 
12 86.8 1 3.75981 -4.86017 12.7023 
77 29 4 0.981206 -3.73201 14.1636 
65 29 4 5.22342 2.04495 10.1977 
63 67 2 5.34437 4.90665 11.2519 
11 86.8 1 11.9591 -5.37003 7.43074 
23 29 4 17.7905 -1.98065 16.9707 
13 86.8 1 8.24907 3.1282 17.5651 
47 29 4 -7.31269 7.03609 7.41913 
41 29 4 -17.2091 9.33128 17.4881 
28 15 3 -6.94508 15.7878 13.7776 
64 15 3 5.15972 6.42703 13.4656 
27 67 2 -6.02186 15.5506 16.2954 
57 67 2 0.940594 10.7757 18.0969 
59 29 4 3.00623 10.88 15.8524 
ITEM: TIMESTEP
14000
ITEM: NUMBER OF ATOMS
80
ITEM: BOX BOUNDS pp pp pp
-1.5749832969759678e+01 1.5749832969759678e+01
-1.5749832969759678e+01 1.5749832969759678e+01
-1.5749832969759678e+01 1.5749832969759678e+01
ITEM: ATOMS id mass type x y z 
78 67 2 -15.7349 -12.3232 -15.4219 
35 29 4 1.49418 -14.2053 -5.47687 
80 29 4 14.5844 -13.7972 -13.0238 
9 86.8 1 11.3826 -13.3217 -8.60892 
60 67 2 7.65076 -5.93629 -13.0377 
61 15 3 9.01144 -7.09448 -11.0236 
30 67 2 10.8148 -5.55098 -13.4974 
32 29 4 13.0816 -7.23918 -12.3497 
20 86.8 1 10.7796 -5.7043 -12.6122 
15 86.8 1 -4.61566 -0.0663608 -14.6347 
50 29 4 -2.03528 -1.373 -8.19872 
48 67 2 -2.22279 1.23015 -6.616 
62 29 4 4.88199 -5.05046 -13.9682 
6 86.8 1 9.01965 -5.02799 -5.31389 
40 15 3 -10.3751 6.01841 -14.7217 
3 86.8 1 -14.6427 5.83452 -8.15932 
39 67 2 -12.2059 7.72971 -15.7069 
37 15 3 -9.92565 9.11124 -11.6799 
36 67 2 -10.9706 10.6025 -13.6643 
38 29 4 -11.5037 13.46 -14.5959 
29 29 4 -5.55151 13.9478 -14.6725 
17 86.8 1 -2.50953 8.96874 -12.5618 
4 86.8 1 -0.0689825 11.9989 -15.7063 
58 15 3 -0.306181 10.6706 -13.764 
1 86.8 1 -15.2492 -7.6277 0.603988 
33 67 2 4.01256 -13.7855 -3.80475 
66 67 2 -1.6982 -9.799 4.07594 
67 15 3 -2.56536 -7.42571 3.14561 
14 86.8 1 1.34529 -14.8823 4.04006 
5 86.8 1 -0.344283 -6.35267 3.85695 
26 29 4 -0.468189 -6.42956 1.28172 
34 15 3 6.04101 -15.044 -2.55887 
18 86.8 1 -10.2149 3.93233 -3.56116 
10 86.8 1 -7.68829 -1.40912 3.6065 
46 15 3 -8.36736 4.84622 1.75182 
72 67 2 -7.01013 1.57444 4.42512 
45 67 2 -7.92358 5.02338 4.40221 
16 86.8 1 -2.18396 -2.92531 -0.924288 
70 15 3 -2.99911 -2.93144 -0.453336 
69 67 2 -0.580141 -3.42949 -1.51734 
24 67 2 0.836256 -5.14101 -1.16391 
25 15 3 3.18272 -4.47366 -2.29968 
71 29 4 1.81456 -5.3105 -1.42199 
53 29 4 4.25175 -5.14576 -1.04071 
49 15 3 -1.72551 2.37638 -4.23118 
73 15 3 -4.92123 0.531119 3.08477 
51 67 2 7.03288 -4.03458 -1.65558 
52 15 3 9.20835 -4.3311 -3.21732 
7 86.8 1 8.75674 2.17699 -2.23409 
2 86.8 1 2.82368 13.7547 -3.11585 
54 67 2 -6.44427 -11.2713 6.50462 
55 15 3 -6.65737 -8.85054 7.65938 
56 29 4 -6.30838 -14.2654 7.04951 
79 15 3 -13.5051 -11.1685 15.1055 
8 86.8 1 -6.6364 -9.60664 8.18839 
68 29 4 0.641613 -11.2213 5.42444 
19 86.8 1 -2.19483 -11.6814 13.0404 
42 67 2 -0.817354 -10.5161 11.8928 
43 15 3 -3.36126 -10.006 11.1752 
44 29 4 1.05123 -12.6355 13.0463 
74 29 4 -9.1871 0.966666 6.47589 
22 15 3 -15.093 -0.445978 9.70089 
21 67 2 -14.9742 -1.49119 12.1791 
75 67 2 -0.525684 -1.02612 12.2137 
76 15 3 -2.85106 0.0771034 11.4238 
12 86.8 1 3.0586 -4.06855 10.964 
77 29 4 1.25323 -3.49493 11.9686 
65 29 4 4.52522 1.38023 8.55367 
63 67 2 4.61422 4.22697 9.65131 
31 15 3 9.96142 -4.25546 -15.6992 