ITEM: TIMESTEP
0
ITEM: NUMBER OF ATOMS
80
ITEM: BOX BOUNDS pp pp pp
-4.0000000000000000e+01 4.0000000000000000e+01
-4.0000000000000000e+01 4.0000000000000000e+01
-4.0000000000000000e+01 4.0000000000000000e+01
ITEM: ATOMS id mass type x y z 
78 67 2 -39.7606 -32.9289 -38.5958 
79 15 3 -38.5677 -30.9368 -39.9535 
80 29 4 39.2864 -33.8146 -35.8472 
60 67 2 18.0709 -15.2414 -33.552 
61 15 3 18.8192 -17.5833 -32.461 
62 29 4 15.7137 -13.6906 -34.6859 
30 67 2 27.8684 -15.3072 -37.487 
31 15 3 27.0469 -13.204 -38.9485 
32 29 4 30.2465 -16.5196 -36.0303 
15 86.8 1 -10.805 -0.25449 -37.2088 
40 15 3 -28.8016 18.875 -38.7411 
39 67 2 -31.0293 20.1598 -39.5295 
36 67 2 -28.4115 27.7147 -35.2537 
37 15 3 -27.6224 25.1594 -34.9669 
38 29 4 -28.6973 29.9993 -37.2402 
17 86.8 1 -5.49156 23.3027 -31.7598 
58 15 3 1.8091 22.1818 -39.0194 
4 86.8 1 -0.921555 31.4227 -38.5649 
9 86.8 1 29.0907 -33.235 -21.3637 
20 86.8 1 28.7539 -12.8915 -27.5041 
33 67 2 9.09742 -33.817 -10.2096 
35 29 4 6.61679 -34.2993 -11.9011 
6 86.8 1 23.8607 -12.786 -14.7544 
50 29 4 -4.69551 -0.787675 -18.2909 
48 67 2 -5.37584 1.57929 -16.5072 
49 15 3 -4.33667 3.64642 -15.1353 
3 86.8 1 -36.8171 14.2976 -19.4253 
34 15 3 11.5826 -34.6999 -9.68115 
24 67 2 2.73372 -12.2714 -3.20626 
25 15 3 5.07382 -12.3746 -4.5284 
26 29 4 0.486709 -13.9528 -2.03528 
71 29 4 1.81825 -11.2423 -4.2634 
51 67 2 16.1497 -11.0825 -4.00909 
52 15 3 18.8343 -11.2316 -3.93576 
53 29 4 13.5794 -12.6292 -3.51032 
70 15 3 -1.37928 -7.40213 -6.44892 
69 67 2 0.730328 -9.01645 -6.02669 
18 86.8 1 -27.1548 9.41929 -9.98672 
7 86.8 1 22.1578 5.48786 -5.50354 
2 86.8 1 7.29414 32.6479 -7.57523 
14 86.8 1 4.3055 -37.4315 9.39068 
1 86.8 1 -39.161 -19.1491 0.890539 
10 86.8 1 -19.8872 -4.86895 7.63172 
16 86.8 1 -8.07335 -8.75822 0.604183 
54 67 2 -16.0867 -30.8016 16.399 
56 29 4 -16.4474 -33.6371 17.4368 
55 15 3 -14.4377 -28.6766 16.3867 
66 67 2 -4.41535 -25.7301 10.722 
67 15 3 -6.19312 -23.7315 10.4389 
68 29 4 -1.77661 -26.5191 12.0111 
5 86.8 1 -0.514897 -13.8698 11.0873 
11 86.8 1 26.393 -12.3701 14.9609 
72 67 2 -17.765 7.00213 12.3528 
73 15 3 -15.2213 7.6051 11.7198 
74 29 4 -19.5763 4.84404 13.4971 
46 15 3 -20.9616 11.0674 10.8534 
45 67 2 -19.2047 11.3133 12.8751 
47 29 4 -17.1077 13.1354 14.112 
8 86.8 1 -17.9652 -21.7039 22.7922 
42 67 2 -1.18749 -27.4951 29.6473 
43 15 3 -3.64463 -27.1462 28.6103 
12 86.8 1 8.19587 -12.022 26.709 
22 15 3 -37.703 -3.17059 29.031 
63 67 2 10.5597 9.819 24.814 
65 29 4 10.8643 6.9113 23.9775 
64 15 3 11.8496 11.9336 25.8624 
19 86.8 1 -6.79422 -30.4281 34.6635 
44 29 4 0.514636 -29.3041 31.4017 
21 67 2 -38.1057 -3.11269 31.6898 
23 29 4 -39.7866 -4.24956 33.9546 
75 67 2 -1.49194 -2.96999 30.3131 
76 15 3 -3.43845 -1.12111 30.1472 
77 29 4 -0.739257 -5.65651 31.5228 
13 86.8 1 18.8545 7.20409 39.2077 
41 29 4 -33.8408 19.7765 39.377 
57 67 2 2.68142 23.1159 38.6138 
59 29 4 4.49549 22.5237 36.2462 
27 67 2 -14.0457 34.5657 35.9556 
28 15 3 -14.3124 35.0711 33.3272 
29 29 4 -14.9319 35.4259 38.7344 
ITEM: TIMESTEP
4
ITEM: NUMBER OF ATOMS
80
ITEM: BOX BOUNDS pp pp pp
-4.0000000000000000e+01 4.0000000000000000e+01
-4.0000000000000000e+01 4.0000000000000000e+01
-4.0000000000000000e+01 4.0000000000000000e+01
ITEM: ATOMS id mass type x y z 
78 67 2 -39.7597 -32.9278 -38.5984 
79 15 3 -38.5668 -30.9355 -39.9554 
80 29 4 39.2843 -33.8169 -35.8424 
60 67 2 18.0732 -15.243 -33.5506 
61 15 3 18.8208 -17.585 -32.4597 
62 29 4 15.7099 -13.687 -34.6881 
30 67 2 27.8663 -15.3057 -37.4882 
31 15 3 27.0454 -13.2024 -38.9498 
32 29 4 30.2505 -16.5224 -36.027 
15 86.8 1 -10.8049 -0.254445 -37.2091 
40 15 3 -28.7993 18.8743 -38.7402 
39 67 2 -31.0266 20.1596 -39.5284 
36 67 2 -28.4111 27.7125 -35.2515 
37 15 3 -27.6218 25.1574 -34.9653 
38 29 4 -28.6981 30.0041 -37.2431 
17 86.8 1 -5.49174 23.3023 -31.7602 
58 15 3 1.80758 22.1821 -39.0169 
4 86.8 1 -0.92146 31.4224 -38.5658 
9 86.8 1 29.0907 -33.2351 -21.3641 
20 86.8 1 28.7536 -12.8919 -27.5058 
33 67 2 9.10006 -33.8169 -10.2079 
35 29 4 6.61192 -34.2997 -11.9038 
6 86.8 1 23.8599 -12.7861 -14.754 
50 29 4 -4.69517 -0.792116 -18.2943 
48 67 2 -5.37643 1.58185 -16.5054 
49 15 3 -4.33668 3.64863 -15.1339 
3 86.8 1 -36.8172 14.298 -19.4259 
34 15 3 11.585 -34.7002 -9.68001 
24 67 2 2.7346 -12.269 -3.20904 
25 15 3 5.07555 -12.3735 -4.52922 
26 29 4 0.481982 -13.9547 -2.03267 
71 29 4 1.82169 -11.2471 -4.25943 
51 67 2 16.1529 -11.081 -4.0096 
52 15 3 18.8372 -11.2308 -3.93611 
53 29 4 13.5747 -12.6313 -3.50962 
70 15 3 -1.38079 -7.40055 -6.4496 
69 67 2 0.728963 -9.01475 -6.02762 
18 86.8 1 -27.1543 9.41933 -9.98643 
7 86.8 1 22.1573 5.48773 -5.50339 
2 86.8 1 7.29406 32.6483 -7.57532 
14 86.8 1 4.30511 -37.4311 9.39085 
1 86.8 1 -39.1609 -19.1493 0.890648 
10 86.8 1 -19.8872 -4.86807 7.63231 
16 86.8 1 -8.072 -8.75834 0.603125 
54 67 2 -16.0863 -30.7985 16.3982 
56 29 4 -16.4488 -33.6422 17.4383 
55 15 3 -14.437 -28.674 16.3863 
66 67 2 -4.41782 -25.7289 10.7207 
67 15 3 -6.19507 -23.7301 10.4381 
68 29 4 -1.77169 -26.5212 12.0131 
5 86.8 1 -0.51482 -13.8703 11.0869 
11 86.8 1 26.3929 -12.3701 14.9612 
72 67 2 -17.7627 7.00302 12.3513 
73 15 3 -15.219 7.60558 11.7188 
74 29 4 -19.5802 4.83975 13.499 
46 15 3 -20.9638 11.0668 10.8516 
45 67 2 -19.2074 11.3124 12.8738 
47 29 4 -17.1038 13.1386 14.1147 
8 86.8 1 -17.965 -21.7046 22.792 
42 67 2 -1.18963 -27.4935 29.6459 
43 15 3 -3.64682 -27.1452 28.6093 
12 86.8 1 8.19556 -12.0217 26.7095 
22 15 3 -37.7019 -3.17006 29.0286 
63 67 2 10.5597 9.82188 24.8149 
65 29 4 10.8642 6.90589 23.9757 
64 15 3 11.8501 11.936 25.8634 
19 86.8 1 -6.79351 -30.4279 34.6625 
44 29 4 0.518192 -29.307 31.405 
21 67 2 -38.1042 -3.11169 31.6873 
23 29 4 -39.7893 -4.25119 33.9593 
75 67 2 -1.49285 -2.96744 30.312 
76 15 3 -3.43964 -1.11907 30.1466 
77 29 4 -0.737055 -5.66155 31.5247 
13 86.8 1 18.8543 7.20412 39.2074 
41 29 4 -33.8463 19.7764 39.375 
57 67 2 2.67953 23.1166 38.6166 
59 29 4 4.49845 22.5236 36.2418 
27 67 2 -14.0447 34.5651 35.9528 
28 15 3 -14.3118 35.0709 33.3247 
29 29 4 -14.9328 35.4269 38.74 
ITEM: TIMESTEP
0
ITEM: NUMBER OF ATOMS
80
ITEM: BOX BOUNDS pp pp pp
-4.0000000000000000e+01 4.0000000000000000e+01
-4.0000000000000000e+01 4.0000000000000000e+01
-4.0000000000000000e+01 4.0000000000000000e+01
ITEM: ATOMS id mass type x y z 
78 67 2 -39.7597 -32.9278 -38.5984 
79 15 3 -38.5668 -30.9355 -39.9554 
80 29 4 39.2843 -33.8169 -35.8424 
60 67 2 18.0732 -15.243 -33.5506 
61 15 3 18.8208 -17.585 -32.4597 
62 29 4 15.7099 -13.687 -34.6881 
30 67 2 27.8663 -15.3057 -37.4882 
31 15 3 27.0454 -13.2024 -38.9498 
32 29 4 30.2505 -16.5224 -36.027 
15 86.8 1 -10.8049 -0.254445 -37.2091 
40 15 3 -28.7993 18.8743 -38.7402 
39 67 2 -31.0266 20.1596 -39.5284 
36 67 2 -28.4111 27.7125 -35.2515 
37 15 3 -27.6218 25.1574 -34.9653 
17 86.8 1 -5.49174 23.3023 -31.7602 
58 15 3 1.80758 22.1821 -39.0169 
38 29 4 -28.6981 30.0041 -37.2431 
4 86.8 1 -0.92146 31.4224 -38.5658 
9 86.8 1 29.0907 -33.2351 -21.3641 
20 86.8 1 28.7536 -12.8919 -27.5058 
33 67 2 9.10006 -33.8169 -10.2079 
35 29 4 6.61192 -34.2997 -11.9038 
6 86.8 1 23.8599 -12.7861 -14.754 
50 29 4 -4.69517 -0.792116 -18.2943 
48 67 2 -5.37643 1.58185 -16.5054 
49 15 3 -4.33668 3.64863 -15.1339 
3 86.8 1 -36.8172 14.298 -19.4259 
34 15 3 11.585 -34.7002 -9.68001 
24 67 2 2.7346 -12.269 -3.20904 
25 15 3 5.07555 -12.3735 -4.52922 
26 29 4 0.481982 -13.9547 -2.03267 
71 29 4 1.82169 -11.2471 -4.25943 
51 67 2 16.1529 -11.081 -4.0096 
52 15 3 18.8372 -11.2308 -3.93611 
53 29 4 13.5747 -12.6313 -3.50962 
70 15 3 -1.38079 -7.40055 -6.4496 
69 67 2 0.728963 -9.01475 -6.02762 
18 86.8 1 -27.1543 9.41933 -9.98643 
7 86.8 1 22.1573 5.48773 -5.50339 
2 86.8 1 7.29406 32.6483 -7.57532 
14 86.8 1 4.30511 -37.4311 9.39085 
1 86.8 1 -39.1609 -19.1493 0.890648 
10 86.8 1 -19.8872 -4.86807 7.63231 
16 86.8 1 -8.072 -8.75834 0.603125 
54 67 2 -16.0863 -30.7985 16.3982 
56 29 4 -16.4488 -33.6422 17.4383 
55 15 3 -14.437 -28.674 16.3863 
66 67 2 -4.41782 -25.7289 10.7207 
67 15 3 -6.19507 -23.7301 10.4381 
68 29 4 -1.77169 -26.5212 12.0131 
5 86.8 1 -0.51482 -13.8703 11.0869 
11 86.8 1 26.3929 -12.3701 14.9612 
72 67 2 -17.7627 7.00302 12.3513 
73 15 3 -15.219 7.60558 11.7188 
74 29 4 -19.5802 4.83975 13.499 
46 15 3 -20.9638 11.0668 10.8516 
45 67 2 -19.2074 11.3124 12.8738 
47 29 4 -17.1038 13.1386 14.1147 
8 86.8 1 -17.965 -21.7046 22.792 
42 67 2 -1.18963 -27.4935 29.6459 
43 15 3 -3.64682 -27.1452 28.6093 
12 86.8 1 8.19556 -12.0217 26.7095 
22 15 3 -37.7019 -3.17006 29.0286 
63 67 2 10.5597 9.82188 24.8149 
65 29 4 10.8642 6.90589 23.9757 
64 15 3 11.8501 11.936 25.8634 
19 86.8 1 -6.79351 -30.4279 34.6625 
44 29 4 0.518192 -29.307 31.405 
21 67 2 -38.1042 -3.11169 31.6873 
23 29 4 -39.7893 -4.25119 33.9593 
75 67 2 -1.49285 -2.96744 30.312 
76 15 3 -3.43964 -1.11907 30.1466 
77 29 4 -0.737055 -5.66155 31.5247 
13 86.8 1 18.8543 7.20412 39.2074 
41 29 4 -33.8463 19.7764 39.375 
57 67 2 2.67953 23.1166 38.6166 
59 29 4 4.49845 22.5236 36.2418 
27 67 2 -14.0447 34.5651 35.9528 
28 15 3 -14.3118 35.0709 33.3247 
29 29 4 -14.9328 35.4269 38.74 
ITEM: TIMESTEP
2000
ITEM: NUMBER OF ATOMS
80
ITEM: BOX BOUNDS pp pp pp
-3.9335365381123992e+01 3.9335365381123992e+01
-3.9335365381123992e+01 3.9335365381123992e+01
-3.9335365381123992e+01 3.9335365381123992e+01
ITEM: ATOMS id mass type x y z 
78 67 2 -39.1321 -31.9723 -38.0417 
79 15 3 -37.3105 -30.3454 -39.1807 
80 29 4 38.5662 -33.1549 -35.3962 
60 67 2 17.852 -14.9732 -33.0969 
61 15 3 18.8396 -17.2224 -31.9904 
62 29 4 15.3113 -13.646 -34.1325 
30 67 2 27.4111 -15.0156 -36.4644 
31 15 3 26.5542 -13.2416 -38.2994 
32 29 4 29.879 -16.3974 -35.3431 
15 86.8 1 -10.9988 -0.245653 -36.3967 
40 15 3 -28.4201 18.6219 -38.227 
39 67 2 -30.6002 19.9692 -39.0583 
36 67 2 -28.0136 27.0653 -34.8646 
37 15 3 -26.6036 24.8218 -34.3734 
17 86.8 1 -5.61486 22.8363 -31.0328 
58 15 3 2.2802 22.0066 -38.2755 
38 29 4 -27.9866 29.7215 -36.3985 
4 86.8 1 -0.737035 31.0059 -38.0048 
9 86.8 1 28.5306 -32.8521 -20.9251 
20 86.8 1 28.0731 -12.8278 -27.1069 
33 67 2 9.0627 -33.3994 -10.0422 
35 29 4 6.61199 -33.941 -11.7752 
6 86.8 1 23.6488 -12.5453 -14.4099 
50 29 4 -4.68903 -0.784051 -17.9766 
48 67 2 -5.23218 1.70898 -16.3066 
49 15 3 -4.23196 3.27105 -14.3495 
3 86.8 1 -36.3573 14.0323 -19.1281 
34 15 3 11.4564 -34.3783 -9.29836 
24 67 2 2.25632 -11.9968 -3.39679 
25 15 3 4.58947 -11.6675 -4.70019 
26 29 4 0.615456 -13.8317 -1.62535 
71 29 4 2.07059 -11.2143 -3.8757 
51 67 2 15.6858 -10.8244 -3.83111 
52 15 3 18.3533 -11.1387 -4.10251 
53 29 4 13.0277 -12.2422 -3.31956 
70 15 3 -1.16579 -7.30299 -5.67166 
69 67 2 0.833089 -9.07901 -5.55616 
18 86.8 1 -26.6345 9.4279 -9.71253 
7 86.8 1 22.0757 5.48264 -5.56532 
2 86.8 1 7.12564 32.5147 -7.45539 
14 86.8 1 4.15289 -37.1535 9.40305 
1 86.8 1 -38.4468 -18.8042 1.02625 
10 86.8 1 -19.6108 -5.00274 7.6579 
16 86.8 1 -7.78252 -8.64166 0.396103 
54 67 2 -15.7467 -30.2777 15.9806 
56 29 4 -15.996 -33.0617 17.1905 
55 15 3 -14.9389 -27.7515 16.4481 
66 67 2 -4.31614 -25.3346 10.5243 
67 15 3 -5.89129 -23.3054 9.70599 
68 29 4 -1.70967 -26.0954 11.931 
5 86.8 1 -0.516497 -14.0049 10.8662 
11 86.8 1 25.8276 -11.9594 14.9918 
72 67 2 -17.6811 6.68694 12.0673 
73 15 3 -15.1096 7.18457 11.4378 
74 29 4 -19.5615 5.01992 13.7945 
46 15 3 -19.6951 10.6665 10.0437 
45 67 2 -18.8229 11.3398 12.5016 
47 29 4 -16.8117 13.0534 14.0398 
8 86.8 1 -17.4194 -21.6787 22.0474 
42 67 2 -1.04095 -26.7751 29.0977 
43 15 3 -3.3142 -26.4257 27.6895 
12 86.8 1 8.26184 -11.4538 26.3728 
22 15 3 -37.4816 -2.63443 28.5313 
76 15 3 -3.64459 -1.28811 29.3309 
63 67 2 10.5894 9.84367 24.1334 
65 29 4 10.7648 6.88439 23.4198 
64 15 3 11.2174 11.6832 26.0043 
19 86.8 1 -6.68276 -29.8848 34.1475 
44 29 4 0.681197 -28.8303 30.5594 
21 67 2 -37.5143 -3.24835 31.1598 
23 29 4 -39.2858 -4.01971 33.5236 
75 67 2 -1.46009 -2.74282 29.9479 
77 29 4 -0.503518 -5.53683 30.7013 
13 86.8 1 18.2952 6.91083 38.3627 
41 29 4 -33.4378 19.6522 38.5366 
57 67 2 2.71004 22.6097 37.805 
59 29 4 4.65838 22.3078 35.4834 
27 67 2 -13.8263 33.7573 35.238 
28 15 3 -14.4844 33.9764 32.6328 
29 29 4 -14.6347 34.498 38.0906 
ITEM: TIMESTEP
4000
ITEM: NUMBER OF ATOMS
80
ITEM: BOX BOUNDS pp pp pp
-3.6289606228072820e+01 3.6289606228072820e+01
-3.6289606228072820e+01 3.6289606228072820e+01
-3.6289606228072820e+01 3.6289606228072820e+01
ITEM: ATOMS id mass type x y z 
78 67 2 -36.0999 -29.1596 -35.1459 
79 15 3 -33.9713 -27.9036 -36.1993 
80 29 4 35.436 -30.5862 -32.6687 
61 15 3 17.7074 -15.9291 -29.3951 
62 29 4 13.9077 -12.6465 -31.539 
60 67 2 16.5564 -13.8018 -30.5768 
30 67 2 25.3157 -13.7836 -33.3374 
31 15 3 24.3336 -12.2875 -35.3494 
32 29 4 27.7647 -15.3214 -32.372 
15 86.8 1 -10.4129 -0.219817 -33.4569 
40 15 3 -26.1699 17.0668 -35.3019 
39 67 2 -28.2878 18.4818 -36.1661 
36 67 2 -25.7926 24.8457 -32.3302 
37 15 3 -24.2623 22.8854 -31.3337 
17 86.8 1 -5.35299 20.9862 -28.5083 
58 15 3 2.29626 20.6109 -35.0681 
38 29 4 -25.7741 27.7045 -33.3592 
4 86.8 1 -0.54836 28.6562 -35.1809 
9 86.8 1 26.2646 -30.4382 -19.2715 
20 86.8 1 25.7243 -11.9749 -25.1785 
50 29 4 -4.43458 -0.825372 -16.7069 
3 86.8 1 -33.6551 12.9499 -17.7122 
33 67 2 8.48301 -30.9484 -9.24737 
35 29 4 6.04638 -31.5094 -10.9885 
34 15 3 10.7774 -31.9866 -8.31504 
6 86.8 1 21.8931 -11.5591 -13.1918 
48 67 2 -4.75833 1.7212 -15.0733 
49 15 3 -4.01134 2.97099 -12.8057 
7 86.8 1 20.5462 5.11306 -5.23654 
18 86.8 1 -24.4823 8.8226 -8.85879 
2 86.8 1 6.53419 30.3318 -6.89081 
1 86.8 1 -35.4145 -17.3412 1.06609 
16 86.8 1 -6.958 -8.00223 0.14176 
24 67 2 1.61931 -10.9571 -3.04627 
25 15 3 3.70054 -9.92821 -4.40781 
26 29 4 0.712348 -13.0853 -1.04217 
71 29 4 2.2445 -10.8912 -3.80634 
70 15 3 -1.17496 -6.70651 -4.55607 
69 67 2 0.872304 -8.40245 -4.93096 
51 67 2 14.4249 -9.88922 -3.4678 
53 29 4 11.7523 -11.2367 -2.93262 
52 15 3 17.0259 -10.3406 -4.01606 
54 67 2 -14.4438 -27.8156 14.7061 
14 86.8 1 3.74444 -34.5066 8.81216 
55 15 3 -14.5237 -25.1931 15.3059 
67 15 3 -5.29789 -21.3383 8.50892 
66 67 2 -3.97473 -23.3675 9.67712 
68 29 4 -1.41649 -24.1193 11.1423 
5 86.8 1 -0.479637 -13.2287 9.96907 
11 86.8 1 23.7288 -10.8769 14.0576 
10 86.8 1 -18.1246 -4.71145 7.2189 
74 29 4 -18.33 4.67063 13.1204 
72 67 2 -16.438 5.87744 11.0591 
46 15 3 -17.6964 9.83916 8.80607 
45 67 2 -17.3608 10.7192 11.3191 
73 15 3 -13.85 6.13534 10.3668 
47 29 4 -15.4789 12.2333 13.1711 
56 29 4 -14.6889 -30.6213 15.871 
8 86.8 1 -15.868 -20.3065 20.0446 
43 15 3 -3.05485 -24.0829 25.247 
12 86.8 1 7.74592 -10.2775 24.4379 
63 67 2 9.99565 9.2204 22.1658 
65 29 4 9.9513 6.2896 21.3485 
64 15 3 9.92661 10.9003 24.274 
19 86.8 1 -6.12056 -27.5321 31.4862 
44 29 4 0.824141 -26.6797 28.0714 
42 67 2 -0.917064 -24.5198 26.8232 
22 15 3 -34.6998 -2.03819 26.2266 
21 67 2 -34.6876 -3.14073 28.6878 
76 15 3 -3.55245 -1.13376 26.7949 
75 67 2 -1.39309 -2.44145 27.7396 
77 29 4 -0.150617 -5.19282 28.1273 
23 29 4 36.2129 -3.61945 31.1783 
13 86.8 1 16.6854 6.25101 35.2228 
41 29 4 -31.1377 18.2651 35.3643 
57 67 2 2.53345 20.7863 34.8342 
59 29 4 4.52151 20.7434 32.5256 
27 67 2 -12.7167 30.9672 32.409 
28 15 3 -13.6138 31.0057 29.8742 
29 29 4 -13.4437 31.62 35.2905 
ITEM: TIMESTEP
6000
ITEM: NUMBER OF ATOMS
80
ITEM: BOX BOUNDS pp pp pp
-3.1499525041636613e+01 3.1499525041636613e+01
-3.1499525041636613e+01 3.1499525041636613e+01
-3.1499525041636613e+01 3.1499525041636613e+01
ITEM: ATOMS id mass type x y z 
78 67 2 -31.3197 -25.0266 -30.5502 
80 29 4 30.5318 -26.6258 -28.2183 
61 15 3 15.7281 -13.9509 -25.2024 
62 29 4 11.7556 -10.934 -27.4552 
60 67 2 14.4757 -11.9693 -26.5312 
30 67 2 21.9935 -11.874 -28.662 
31 15 3 20.9234 -10.5476 -30.7497 
32 29 4 24.3958 -13.5178 -27.7317 
15 86.8 1 -9.23526 -0.181195 -28.9713 
20 86.8 1 22.1583 -10.5446 -22.1537 
40 15 3 -22.5363 14.5342 -30.5985 
39 67 2 -24.5882 16.0333 -31.4886 
37 15 3 -20.9184 19.6795 -26.6546 
17 86.8 1 -4.80005 18.1275 -24.6823 
58 15 3 1.9409 18.292 -30.0357 
36 67 2 -22.2518 21.4878 -28.1216 
38 29 4 -22.4556 24.4485 -28.8232 
4 86.8 1 -0.363533 24.8744 -30.7 
9 86.8 1 22.7532 -26.5278 -16.7364 
50 29 4 -3.95377 -0.916097 -14.7394 
6 86.8 1 18.9883 -10.0294 -11.3346 
48 67 2 -4.09322 1.65064 -13.0942 
49 15 3 -3.59392 2.74099 -10.678 
3 86.8 1 -29.3016 11.2733 -15.482 
33 67 2 7.50033 -27.0028 -7.98547 
35 29 4 5.05269 -27.56 -9.727 
34 15 3 9.70263 -28.0936 -6.89543 
26 29 4 0.622299 -11.6362 -0.451238 
16 86.8 1 -5.71768 -6.97898 -0.153573 
70 15 3 -1.40896 -5.38774 -3.61936 
24 67 2 1.14244 -9.65348 -2.70028 
25 15 3 3.10555 -8.76703 -4.29351 
71 29 4 2.09169 -9.56155 -2.90267 
69 67 2 0.622428 -7.10681 -3.99278 
53 29 4 9.92374 -9.78464 -2.39768 
51 67 2 12.6145 -8.47473 -2.97736 
52 15 3 15.1484 -8.96979 -3.76082 
18 86.8 1 -21.1323 7.75949 -7.58223 
7 86.8 1 17.9366 4.47162 -4.61148 
2 86.8 1 5.6366 26.6352 -6.00372 
14 86.8 1 3.14975 -30.1023 7.77371 
1 86.8 1 -30.6861 -15.0622 1.02958 
67 15 3 -4.58651 -18.2186 6.96629 
66 67 2 -3.45005 -20.2261 8.35349 
68 29 4 -0.925826 -21.0485 9.85485 
5 86.8 1 -0.417604 -11.7746 8.56877 
10 86.8 1 -15.7449 -4.08642 6.437 
72 67 2 -14.3297 4.72516 9.51623 
46 15 3 -15.2111 8.75523 7.0378 
45 67 2 -15.1126 9.57795 9.59395 
73 15 3 -11.7618 4.62604 8.71002 
54 67 2 -12.5007 -23.9221 12.8124 
55 15 3 -13.2426 -21.3878 13.3438 
56 29 4 -12.7108 -26.8159 13.769 
8 86.8 1 -13.5891 -17.951 17.1212 
11 86.8 1 20.5139 -9.31257 12.4039 
74 29 4 -16.2423 3.89441 11.7467 
63 67 2 8.87023 8.1187 19.2197 
65 29 4 8.6816 5.24549 18.2097 
47 29 4 -13.3476 10.9059 11.7008 
79 15 3 -29.0548 -24.0233 31.4013 
19 86.8 1 -5.22318 -23.8536 27.2447 
42 67 2 -0.81229 -21.1251 23.2908 
44 29 4 0.943902 -23.3529 24.4132 
43 15 3 -2.92142 -20.5988 21.6989 
22 15 3 -30.0963 -1.45889 22.4873 
21 67 2 -30.1861 -2.82655 24.8121 
76 15 3 -3.35545 -0.793122 23.0519 
75 67 2 -1.25467 -2.0718 24.1613 
12 86.8 1 6.78569 -8.67132 21.3312 
77 29 4 0.250587 -4.72384 24.2977 
23 29 4 31.2857 -3.12907 27.434 
64 15 3 8.35703 9.74251 21.313 
13 86.8 1 14.3173 5.33356 30.4075 
41 29 4 -27.4629 15.9442 30.4863 
57 67 2 2.1929 18.0252 30.2931 
59 29 4 4.16392 18.1765 27.9649 
27 67 2 -10.9434 26.7391 28.036 
28 15 3 -11.9669 26.6845 25.5471 
29 29 4 -11.5934 27.3372 30.9561 
ITEM: TIMESTEP
8000
ITEM: NUMBER OF ATOMS
80
ITEM: BOX BOUNDS pp pp pp
-2.6803072648108756e+01 2.6803072648108756e+01
-2.6803072648108756e+01 2.6803072648108756e+01
-2.6803072648108756e+01 2.6803072648108756e+01
ITEM: ATOMS id mass type x y z 
78 67 2 -26.6435 -21.0909 -26.0296 
80 29 4 25.7379 -22.7675 -23.7917 
61 15 3 13.7078 -11.9779 -21.0014 
62 29 4 9.6769 -9.21631 -23.438 
60 67 2 12.4221 -10.1737 -22.5227 
31 15 3 17.6599 -8.74785 -26.2611 
30 67 2 18.7215 -10.0004 -24.1351 
32 29 4 21.0685 -11.6867 -23.1766 
20 86.8 1 18.7014 -9.12272 -19.2479 
15 86.8 1 -7.97576 -0.143468 -24.6339 
40 15 3 -18.9699 11.9918 -25.9482 
17 86.8 1 -4.205 15.3447 -20.9985 
58 15 3 1.42622 16.0191 -25.1244 
37 15 3 -17.708 16.5134 -22.1294 
36 67 2 -18.7855 18.2469 -23.8771 
38 29 4 -19.2367 21.2149 -24.4697 
4 86.8 1 -0.222443 21.1105 -26.302 
35 29 4 4.05106 -23.6497 -8.46922 
33 67 2 6.50714 -23.1124 -6.74314 
34 15 3 8.62208 -24.2555 -5.54725 
9 86.8 1 19.332 -22.6506 -14.2853 
6 86.8 1 16.0656 -8.53941 -9.52827 
50 29 4 -3.45249 -1.00913 -12.8029 
48 67 2 -3.48044 1.55876 -11.1588 
49 15 3 -3.15364 2.57159 -8.68904 
3 86.8 1 -24.9901 9.64626 -13.3089 
18 86.8 1 -17.8498 6.67347 -6.34892 
1 86.8 1 -26.0627 -12.84 0.956182 
26 29 4 0.191431 -10.299 0.299146 
16 86.8 1 -4.45999 -5.96376 -0.439935 
24 67 2 1.07251 -8.63846 -2.09737 
25 15 3 3.10487 -8.10222 -3.7834 
71 29 4 1.67482 -8.03679 -2.61957 
69 67 2 0.139849 -5.49544 -3.30282 
53 29 4 8.23971 -8.40338 -1.88978 
51 67 2 10.9276 -7.11327 -2.53618 
52 15 3 13.4004 -7.57081 -3.49398 
70 15 3 -2.04906 -4.07301 -2.69615 
7 86.8 1 15.288 3.81774 -3.9515 
2 86.8 1 4.77185 22.9222 -5.14052 
54 67 2 -10.6659 -20.0841 10.994 
55 15 3 -11.6619 -17.6587 11.5794 
56 29 4 -10.778 -23.0439 11.7068 
68 29 4 -0.448061 -18.0561 8.57569 
14 86.8 1 2.57845 -25.6794 6.71709 
66 67 2 -2.92429 -17.1185 7.05805 
8 86.8 1 -11.4165 -15.6065 14.3076 
67 15 3 -3.97099 -15.111 5.60792 
5 86.8 1 -0.358884 -10.2731 7.18519 
11 86.8 1 17.3965 -7.83192 10.7123 
10 86.8 1 -13.3879 -3.38118 5.64548 
72 67 2 -12.2037 3.63088 8.01031 
73 15 3 -9.7313 3.15274 7.07305 
74 29 4 -14.1493 3.04885 10.282 
65 29 4 7.45104 4.1784 15.2134 
46 15 3 -12.9719 7.77806 5.33865 
45 67 2 -12.9359 8.38673 7.9548 
47 29 4 -11.2426 9.57439 10.2012 
79 15 3 -24.334 -20.2057 26.5262 
19 86.8 1 -4.32527 -20.2471 23.0445 
42 67 2 -0.752449 -17.8588 19.8619 
44 29 4 0.995096 -20.123 20.9244 
43 15 3 -2.91561 -17.2857 18.3713 
12 86.8 1 5.76889 -7.18639 18.2693 
22 15 3 -25.5619 -1.02875 18.7593 
21 67 2 -25.7338 -2.47028 21.0247 
76 15 3 -3.16695 -0.490644 19.4746 
75 67 2 -1.08797 -1.7478 20.6273 
77 29 4 0.585089 -4.29568 20.6006 
13 86.8 1 12.0566 4.48524 25.7279 
23 29 4 26.468 -2.69019 23.723 
39 67 2 -20.9436 13.5758 26.7538 
41 29 4 -23.8262 13.6157 25.7582 
57 67 2 1.82347 15.375 25.9033 
59 29 4 3.75194 15.6261 23.5585 
63 67 2 7.69637 6.99354 16.3572 
64 15 3 7.01173 8.58136 18.4173 
27 67 2 -9.18059 22.6618 23.7862 
28 15 3 -10.2451 22.5975 21.3188 
29 29 4 -9.76634 23.2359 26.7258 
ITEM: TIMESTEP
10000
ITEM: NUMBER OF ATOMS
80
ITEM: BOX BOUNDS pp pp pp
-2.2046748153203147e+01 2.2046748153203147e+01
-2.2046748153203147e+01 2.2046748153203147e+01
-2.2046748153203147e+01 2.2046748153203147e+01
ITEM: ATOMS id mass type x y z 
78 67 2 -21.9287 -17.2085 -21.4551 
80 29 4 20.9116 -18.9 -19.2484 
9 86.8 1 15.8885 -18.6786 -11.8189 
15 86.8 1 -6.60858 -0.10894 -20.2848 
62 29 4 7.58403 -7.44741 -19.3717 
60 67 2 10.3442 -8.35646 -18.4438 
61 15 3 11.6405 -9.94582 -16.7036 
31 15 3 14.3762 -6.86008 -21.7799 
30 67 2 15.367 -8.09736 -19.6068 
32 29 4 17.6774 -9.80374 -18.5784 
20 86.8 1 15.253 -7.65628 -16.2979 
40 15 3 -15.3157 9.4099 -21.1873 
37 15 3 -14.4231 13.2956 -17.6309 
36 67 2 -15.3403 14.9747 -19.524 
38 29 4 -15.9567 17.8959 -20.1394 
17 86.8 1 -3.5414 12.5628 -17.3158 
4 86.8 1 -0.11994 17.254 -21.8004 
29 29 4 -7.93971 19.1633 -21.6422 
58 15 3 0.796733 13.6938 -20.1805 
35 29 4 2.99267 -19.6339 -7.19307 
33 67 2 5.46642 -19.1294 -5.48207 
34 15 3 7.51647 -20.3266 -4.21485 
50 29 4 -2.9121 -1.13483 -10.8362 
16 86.8 1 -3.18877 -4.87517 -0.707793 
69 67 2 -0.256367 -4.29672 -2.50929 
70 15 3 -2.57367 -3.14756 -1.78092 
24 67 2 0.838459 -7.18197 -1.57704 
25 15 3 2.91093 -6.74908 -3.23082 
71 29 4 1.34271 -6.87911 -2.36059 
53 29 4 6.58823 -7.05218 -1.3946 
51 67 2 9.24763 -5.7437 -2.11832 
6 86.8 1 13.071 -7.03372 -7.72628 
52 15 3 11.6556 -6.17175 -3.23529 
3 86.8 1 -20.5803 7.99931 -11.0939 
18 86.8 1 -14.5504 5.5303 -5.12989 
48 67 2 -2.88448 1.44151 -9.20312 
49 15 3 -2.66591 2.43502 -6.71431 
7 86.8 1 12.5409 3.13526 -3.24587 
2 86.8 1 3.91579 19.0602 -4.26822 
54 67 2 -8.86667 -16.1744 9.18107 
55 15 3 -9.55368 -13.8218 10.2962 
56 29 4 -8.82234 -19.1932 9.62325 
68 29 4 0.0262845 -15.0319 7.26595 
66 67 2 -2.40912 -13.984 5.75738 
67 15 3 -3.38837 -11.8907 4.38026 
14 86.8 1 2.02794 -21.1166 5.60274 
1 86.8 1 -21.3977 -10.5931 0.840291 
5 86.8 1 -0.310839 -8.65954 5.78769 
10 86.8 1 -10.9755 -2.61218 4.79678 
26 29 4 -0.120862 -8.75686 0.845268 
11 86.8 1 14.2772 -6.38442 8.92151 
74 29 4 -12.0045 2.20006 8.74086 
46 15 3 -10.8011 6.66438 3.70044 
72 67 2 -10.016 2.65635 6.47232 
73 15 3 -7.68354 1.8284 5.41788 
45 67 2 -10.7468 7.05394 6.36279 
47 29 4 -9.0751 8.15779 8.66206 
79 15 3 -19.5946 -16.3547 21.6078 
8 86.8 1 -9.30674 -13.2063 11.4488 
19 86.8 1 -3.42305 -16.5954 18.784 
42 67 2 -0.71936 -14.6058 16.4058 
43 15 3 -2.98951 -14.0275 15.0852 
44 29 4 1.01434 -16.886 17.4539 
22 15 3 -21.0037 -0.65041 14.9357 
21 67 2 -21.1647 -2.08841 17.2014 
76 15 3 -3.00175 -0.200526 15.9027 
75 67 2 -0.893027 -1.42837 17.0316 
12 86.8 1 4.6793 -5.77633 15.1363 
77 29 4 0.884753 -3.9036 16.8918 
23 29 4 21.5787 -2.25484 19.9324 
65 29 4 6.19173 3.03718 12.2628 
13 86.8 1 9.83168 3.67314 21.0444 
63 67 2 6.44726 5.83058 13.4624 
64 15 3 5.75733 7.36998 15.5557 
39 67 2 -17.2178 11.0756 21.9876 
41 29 4 -20.106 11.2279 21.0187 
27 67 2 -7.38594 18.5886 19.5073 
28 15 3 -8.4723 18.5804 17.0464 
57 67 2 1.40566 12.72 21.4808 
59 29 4 3.31428 12.9984 19.117 
ITEM: TIMESTEP
12000
ITEM: NUMBER OF ATOMS
80
ITEM: BOX BOUNDS pp pp pp
-1.8640012391015077e+01 1.8640012391015077e+01
-1.8640012391015077e+01 1.8640012391015077e+01
-1.8640012391015077e+01 1.8640012391015077e+01
ITEM: ATOMS id mass type x y z 
78 67 2 -18.5624 -14.4699 -18.1758 
80 29 4 17.4508 -16.142 -15.9578 
9 86.8 1 13.4341 -15.8136 -10.0722 
15 86.8 1 -5.59266 -0.0840801 -17.1972 
62 29 4 6.10243 -6.19093 -16.4401 
60 67 2 8.88317 -7.04854 -15.5119 
61 15 3 10.2388 -8.35253 -13.584 
31 15 3 11.9989 -5.47736 -18.5085 
30 67 2 12.938 -6.70182 -16.3005 
32 29 4 15.2012 -8.43412 -15.201 
20 86.8 1 12.7895 -6.63836 -14.3016 
40 15 3 -12.6864 7.5515 -17.7357 
3 86.8 1 -17.3982 6.82863 -9.52202 
37 15 3 -12.0466 10.9917 -14.4021 
36 67 2 -12.8995 12.6233 -16.37 
38 29 4 -13.6005 15.5101 -17.063 
17 86.8 1 -3.04045 10.5914 -14.7125 
4 86.8 1 -0.0576402 14.4255 -18.5497 
29 29 4 -6.6128 16.2767 -17.8756 
58 15 3 0.189301 12.1255 -16.7342 
35 29 4 2.20995 -16.7425 -6.27586 
33 67 2 4.70464 -16.2891 -4.57438 
34 15 3 6.70739 -17.5217 -3.25865 
50 29 4 -2.51881 -1.23602 -9.43253 
16 86.8 1 -2.25568 -3.73554 -1.01583 
69 67 2 -0.752498 -3.83658 -1.75058 
70 15 3 -3.14172 -3.27114 -0.654017 
24 67 2 0.762087 -6.09797 -1.32926 
25 15 3 2.96962 -5.73567 -2.83187 
71 29 4 1.34875 -6.02292 -2.10764 
53 29 4 5.42967 -6.07856 -1.05996 
51 67 2 8.0782 -4.77829 -1.84754 
6 86.8 1 10.8888 -5.95352 -6.41965 
52 15 3 10.3897 -5.16531 -3.17199 
18 86.8 1 -12.1811 4.69513 -4.25701 
48 67 2 -2.4657 1.34929 -7.8074 
49 15 3 -2.30799 2.36318 -5.31814 
7 86.8 1 10.5347 2.63417 -2.72099 
2 86.8 1 3.31776 16.2804 -3.65158 
54 67 2 -7.59056 -13.5269 7.62314 
55 15 3 -7.79968 -11.0749 8.69306 
56 29 4 -7.39301 -16.4864 8.29021 
66 67 2 -2.0249 -11.7199 4.83375 
67 15 3 -2.95284 -9.49943 3.62483 
68 29 4 0.361423 -12.9145 6.31667 
14 86.8 1 1.63807 -17.8027 4.79163 
1 86.8 1 -18.0582 -8.98832 0.74272 
5 86.8 1 -0.309244 -7.49094 4.74746 
10 86.8 1 -9.20984 -1.9913 4.18723 
26 29 4 -0.324271 -7.49725 1.15314 
11 86.8 1 12.0605 -5.36609 7.61521 
74 29 4 -10.4822 1.6055 7.60068 
46 15 3 -9.30041 5.77903 2.55569 
72 67 2 -8.43965 1.98049 5.36088 
73 15 3 -6.28753 0.888481 4.16457 
45 67 2 -9.18623 6.03973 5.23529 
47 29 4 -7.50508 7.10374 7.55038 
79 15 3 -16.2243 -13.5942 18.0926 
8 86.8 1 -7.85306 -11.3245 9.70758 
19 86.8 1 -2.75618 -13.9543 15.696 
42 67 2 -0.737385 -12.3266 13.9567 
43 15 3 -3.11328 -11.7458 12.8306 
44 29 4 1.01549 -14.5936 15.0103 
22 15 3 -17.7705 -0.428463 12.1554 
21 67 2 -17.8739 -1.807 14.4651 
76 15 3 -2.89402 -0.0222683 13.3997 
75 67 2 -0.727378 -1.22398 14.4536 
12 86.8 1 3.84056 -4.78862 12.8942 
77 29 4 1.13621 -3.6321 14.2107 
23 29 4 18.0746 -1.94246 17.2102 
39 67 2 -14.5369 9.26488 18.5978 
65 29 4 5.29801 2.18822 10.1766 
13 86.8 1 8.2618 3.1162 17.7016 
63 67 2 5.52951 4.9776 11.3992 
64 15 3 4.94032 6.4705 13.5607 
41 29 4 -17.4298 9.51288 17.6516 
27 67 2 -6.08631 15.6946 16.454 
28 15 3 -7.16554 15.767 13.9875 
57 67 2 1.0838 10.8689 18.3378 
59 29 4 2.97934 11.0984 15.9533 
ITEM: TIMESTEP
14000
ITEM: NUMBER OF ATOMS
80
ITEM: BOX BOUNDS pp pp pp
-1.5713098571206027e+01 1.5713098571206027e+01
-1.5713098571206027e+01 1.5713098571206027e+01
-1.5713098571206027e+01 1.5713098571206027e+01
ITEM: ATOMS id mass type x y z 
78 67 2 -15.6792 -12.1387 -15.3596 
35 29 4 1.53098 -14.2478 -5.48309 
80 29 4 14.4809 -13.7691 -13.1195 
9 86.8 1 11.3352 -13.3364 -8.57787 
60 67 2 7.66597 -5.91759 -13.0365 
61 15 3 9.14415 -6.87416 -11.0058 
30 67 2 10.8146 -5.48376 -13.235 
32 29 4 13.029 -7.30642 -12.2095 
20 86.8 1 10.6891 -5.76248 -12.784 
15 86.8 1 -4.7068 -0.0633889 -14.5551 
62 29 4 4.84687 -5.13993 -13.8882 
50 29 4 -2.17363 -1.32416 -8.21538 
48 67 2 -2.10209 1.25938 -6.60345 
31 15 3 9.82326 -4.31107 -15.4236 
6 86.8 1 9.01343 -5.00932 -5.25596 
40 15 3 -10.4318 5.97281 -14.7364 
3 86.8 1 -14.6479 5.82256 -8.17209 
37 15 3 -10.014 9.01584 -11.6357 
36 67 2 -10.8209 10.5869 -13.663 
38 29 4 -11.5713 13.4382 -14.4307 
29 29 4 -5.47029 13.7967 -14.6441 
17 86.8 1 -2.59042 8.92968 -12.4913 
4 86.8 1 -0.0198442 11.9362 -15.6865 
58 15 3 -0.426093 10.8476 -13.9628 
1 86.8 1 -15.1899 -7.60868 0.649991 
33 67 2 4.03344 -13.8502 -3.79335 
66 67 2 -1.65374 -9.73874 4.05534 
67 15 3 -2.40566 -7.37619 3.01689 
14 86.8 1 1.30988 -14.9362 4.08694 
5 86.8 1 -0.368908 -6.47604 3.79563 
26 29 4 -0.497985 -6.3019 1.38366 
71 29 4 1.57761 -5.33566 -1.69198 
34 15 3 5.97756 -15.1259 -2.44498 
18 86.8 1 -10.1493 3.97068 -3.50765 
10 86.8 1 -7.64944 -1.41071 3.65259 
46 15 3 -8.01645 4.93027 1.6046 
72 67 2 -7.09677 1.4108 4.40357 
45 67 2 -7.84758 5.11808 4.28115 
73 15 3 -5.193 0.0875817 3.04449 
16 86.8 1 -1.9679 -2.90516 -0.893715 
69 67 2 -0.720926 -3.34948 -1.40823 
70 15 3 -3.12966 -2.95557 -0.289283 
24 67 2 0.775988 -5.21433 -1.16193 
25 15 3 3.12545 -4.78381 -2.40456 
53 29 4 4.30434 -5.12921 -0.913059 
49 15 3 -1.98466 2.27481 -4.11781 
51 67 2 7.04622 -4.01522 -1.64784 
52 15 3 9.13964 -4.3069 -3.31032 
7 86.8 1 8.80141 2.19635 -2.26489 
2 86.8 1 2.81739 13.8886 -3.12488 
54 67 2 -6.45985 -11.1956 6.51721 
55 15 3 -6.6099 -8.80551 7.73443 
56 29 4 -6.18761 -14.1865 7.00615 
79 15 3 -13.3492 -11.2302 15.0809 
8 86.8 1 -6.5705 -9.71092 8.02524 
68 29 4 0.608654 -11.199 5.47926 
19 86.8 1 -2.16828 -11.6475 13.021 
42 67 2 -0.789546 -10.4141 11.8847 
43 15 3 -3.24439 -9.86757 10.9376 
44 29 4 1.02498 -12.6372 12.9053 
74 29 4 -9.18326 1.15831 6.60749 
22 15 3 -15.0264 -0.277601 9.75585 
21 67 2 -15.0407 -1.56132 12.1169 
76 15 3 -2.7798 0.0809951 11.2892 
75 67 2 -0.548835 -1.07572 12.2421 
12 86.8 1 3.0574 -3.93726 10.9794 
77 29 4 1.42239 -3.36055 11.8224 
65 29 4 4.52918 1.45718 8.39952 
63 67 2 4.72257 4.23384 9.63672 