ITEM: TIMESTEP
250
ITEM: NUMBER OF ATOMS
4000
ITEM: BOX BOUNDS pp pp pp
3.5575574270658800e-01 3.5744244257293445e+01
-2.6203371839025635e-01 3.6362033718390300e+01
-2.7653015113152080e-01 3.6376530151131547e+01
ITEM: ATOMS id xs ys zs c_csym c_peratom fx fy fz 
3 0.0515658 0.000170681 0.0495694 0.510899 -3.50539 -1.06491 -0.632795 0.332087 
5 0.0987158 0.9971 0.00246321 0.646439 -3.4936 0.350584 0.981536 -0.403706 
7 0.150325 0.00055348 0.0527712 0.434256 -3.49819 -0.299664 -0.0134908 -0.380605 
8 0.0968827 0.0525754 0.0518319 0.655821 -3.50658 0.740561 -0.746501 -0.201028 
12 0.202533 0.0503382 0.0480272 0.726828 -3.51456 -0.449686 -0.339444 0.16679 
11 0.25137 -0.00128314 0.0498078 0.162179 -3.50579 -0.269835 0.543733 0.250242 
10 0.251865 0.0496864 -0.00322116 0.561016 -3.51793 -0.0950898 0.07433 0.601699 
16 0.300053 0.047507 0.0540192 0.491577 -3.51458 -0.0337343 0.307944 -0.753673 
14 0.35039 0.0498194 1.00479 0.698549 -3.49816 -0.0602494 -0.625527 -0.996813 
15 0.351743 -0.000668509 0.0523447 0.215777 -3.51516 -0.0919299 -0.080139 -0.65721 
20 0.40238 0.0521656 0.0500773 0.541839 -3.4981 0.275882 -0.956271 0.0294804 
18 0.452269 0.048151 -0.00145736 0.359946 -3.46887 -1.01444 -0.509142 1.32983 
19 0.455925 0.997873 0.0526489 1.28596 -3.44513 -2.14866 1.1036 -0.83341 
24 0.497066 0.0480076 0.0515415 0.566408 -3.49471 0.68388 1.06364 0.247232 
22 0.547049 0.0499128 0.00115326 0.247033 -3.50332 0.329146 -0.212952 0.216127 
23 0.546145 1.00125 0.0488129 0.519746 -3.51292 0.421533 -0.395634 0.297492 
28 0.598606 0.0483395 0.0503723 0.199982 -3.51924 -0.0485333 0.39191 -0.175811 
32 0.700925 0.0490668 0.0511918 0.132097 -3.52078 -0.378419 0.0294147 -0.0381562 
31 0.748538 1.00018 0.0510131 0.289608 -3.50103 0.616654 -0.37081 -0.374748 
36 0.798481 0.0480775 0.0498302 0.253026 -3.51111 0.467806 0.14033 0.119859 
40 0.898963 0.0509999 0.0497902 0.415478 -3.51668 -0.141114 -0.620556 0.191732 
4 -0.00494803 0.0480121 0.0505106 0.333226 -3.52099 0.614848 0.0966695 0.2099 
39 0.948348 0.997328 0.0499443 0.167957 -3.50905 0.00781891 -0.121899 0.172117 
43 0.047087 0.0994268 0.0494248 0.107729 -3.50752 0.220516 0.0296326 0.394987 
44 -0.00314645 0.146352 0.0484789 0.597807 -3.48669 0.935436 1.06293 0.463519 
45 0.0979566 0.101171 -0.000127188 0.243691 -3.5183 -0.204378 -0.349525 0.242324 
47 0.148601 0.097599 0.0524089 0.323805 -3.50301 0.0328766 0.116669 0.0922915 
48 0.0983562 0.151258 0.0513148 0.191071 -3.5222 -0.354203 -0.463136 0.0193075 
49 0.196253 0.0958816 0.999636 0.783005 -3.50968 0.60627 0.520937 -0.164113 
52 0.199564 0.144514 0.050384 0.647646 -3.50913 -0.0671888 0.54756 0.10954 
51 0.252257 0.0993225 0.0494942 0.335362 -3.50027 0.0182532 -0.399424 0.320051 
50 0.250551 0.150725 1.00072 0.291682 -3.51563 -0.331321 -0.4814 0.266591 
53 0.301217 0.0990318 1.00107 0.161115 -3.51757 -0.112122 -0.161677 -0.0728366 
56 0.302365 0.149709 0.0499718 0.356938 -3.49612 -0.802483 -0.928866 0.320467 
55 0.353052 0.0980983 0.0495848 0.472112 -3.50763 -0.667108 0.336451 0.502978 
57 0.400696 0.0988549 0.999235 0.328401 -3.50346 0.253403 0.155956 0.410417 
60 0.402045 0.148981 0.0551222 0.687805 -3.5043 -0.36142 -0.0915251 -0.833148 
58 0.445734 0.150585 1.00011 0.705786 -3.50688 0.793028 -0.271644 -0.180358 
59 0.451412 0.100891 0.0505834 0.223038 -3.49853 -0.153566 -0.32721 -0.203228 
63 0.546323 0.099223 0.0487248 0.318129 -3.5055 0.720914 0.382379 0.416115 
64 0.497163 0.148013 0.0504896 0.38953 -3.49012 0.783264 0.631721 0.17868 
66 0.646298 0.148691 0.00241235 0.754835 -3.50637 0.604644 0.259245 -0.3098 
67 0.649477 0.0988114 0.051862 0.2716 -3.51521 -0.0548034 0.111179 -0.548828 
68 0.596787 0.151203 0.0496559 0.260224 -3.50969 0.0367133 -0.396492 0.0839933 
72 0.701061 0.149781 0.0496485 0.177022 -3.51582 -0.268362 -0.0972917 0.00507107 
71 0.748186 0.0999937 0.0500857 0.37248 -3.51655 0.567891 -0.27255 0.188097 
76 0.798949 0.149449 0.053358 0.618816 -3.49086 0.269235 0.198335 -1.00328 
74 0.849759 0.149448 1.0028 0.428536 -3.49578 0.33661 -0.29474 -1.15425 
75 0.85042 0.0980618 0.0467297 0.665807 -3.51401 -0.464829 -0.051985 0.379771 
80 0.89738 0.146141 0.0510692 0.482819 -3.50638 0.280592 0.302397 0.183561 
79 0.947558 0.0978068 0.0529066 0.394129 -3.51244 0.0990344 -0.00954265 -0.397001 
83 0.0493381 0.203372 0.0498203 0.462044 -3.4843 -0.378855 -1.56031 0.24231 
87 0.150769 0.197286 0.052436 0.63886 -3.49837 -0.201359 0.459281 -0.436735 
91 0.247271 0.200435 0.0521566 0.557932 -3.50043 0.640142 -0.391552 -0.234508 
92 0.199436 0.25322 0.0471677 0.835416 -3.49617 -0.417515 -0.955401 0.759412 
96 0.299738 0.24884 0.0496613 0.244295 -3.51432 -0.479015 0.138147 0.296499 
95 0.345819 0.198711 0.0533314 0.694917 -3.47943 1.08532 0.0240973 -0.0310932 
94 0.347951 0.249156 0.000892143 0.12327 -3.51506 0.182608 -0.0865791 0.113508 
100 0.39869 0.246697 0.0519759 0.302472 -3.51537 0.00205553 0.0807673 -0.257291 
99 0.453324 0.197127 0.0541557 0.939707 -3.50062 -1.02484 0.670811 -0.897239 
98 0.449043 0.248603 0.999844 0.209126 -3.49809 -0.242526 0.0534073 0.593912 
103 0.547818 0.199288 0.049714 0.232872 -3.50438 0.190792 -0.126742 -0.204243 
102 0.548924 0.250604 0.00242922 0.28466 -3.52416 -0.179572 -0.00227653 -0.18402 
107 0.649092 0.199043 0.0486276 0.23397 -3.51364 0.344497 -0.137612 0.0956569 
108 0.603491 0.249399 0.0472526 0.816366 -3.49127 -1.1595 0.166443 0.788886 
109 0.704291 0.197634 -2.2108e-05 0.627801 -3.51173 -0.621738 0.375567 0.164762 
111 0.750599 0.197575 0.0520851 0.400249 -3.50381 0.287243 0.520169 -0.283879 
115 0.851783 0.197947 0.0491459 0.475143 -3.4984 -0.0954787 0.774971 0.681098 
120 0.898957 0.253539 0.0516321 0.594065 -3.50052 0.612893 -0.527802 -0.279766 
119 0.948471 0.197156 0.049381 0.355875 -3.50229 0.0263109 0.928939 0.245289 
84 0.000303351 0.252821 0.0483165 0.354141 -3.50992 -0.625225 -0.328831 0.123017 
123 0.049357 0.297978 0.0501956 0.433047 -3.51293 0.136594 0.646068 0.131715 
88 0.0984793 0.247818 0.0485499 0.409722 -3.50838 0.350261 0.330886 0.308291 
125 0.0968792 0.299982 0.000157812 0.289282 -3.49439 0.865688 0.219356 -0.648368 
127 0.147899 0.300656 0.0480461 0.181295 -3.52053 0.0462075 0.0905881 0.0993838 
129 0.199622 0.300022 0.999477 0.228543 -3.49534 -0.295237 0.0894385 -0.672867 
131 0.245576 0.300455 0.0486553 0.459579 -3.47515 0.539269 -0.146869 0.404642 
135 0.349275 0.296558 0.0532773 0.582821 -3.51285 0.121472 0.269901 -0.61634 
137 0.396437 0.299216 0.999277 0.445057 -3.50414 0.6855 -0.391608 0.383325 
139 0.448036 0.299143 0.0509492 0.143432 -3.51758 -0.0133629 -0.338232 -0.0254765 
104 0.501702 0.247784 0.0534151 0.540085 -3.50879 -0.471978 0.574578 -0.460625 
143 0.552132 0.301172 0.0509683 0.527038 -3.51396 -0.224859 -0.366267 -0.161591 
106 0.649109 0.249475 0.000366072 0.222496 -3.47536 0.465653 0.0650381 -0.779712 
147 0.649329 0.298111 0.0458264 0.779059 -3.45001 -0.0241644 0.358993 1.90412 
112 0.695724 0.250068 0.050283 1.34653 -3.47892 2.10582 -0.862472 -0.502098 
149 0.70391 0.296435 1.00082 0.760869 -3.50902 -0.313984 0.555154 -0.20867 
110 0.754939 0.24776 0.00264346 0.605846 -3.49956 -0.526326 0.301177 -0.112771 
116 0.803421 0.250348 0.049558 0.132573 -3.50806 0.0618403 0.0807893 0.300183 
151 0.753269 0.301587 0.051178 0.270358 -3.511 -0.294762 -0.756034 -0.434774 
155 0.85431 0.301786 0.049256 0.120734 -3.49572 -0.27149 0.177054 0.29861 
159 0.94954 0.303357 0.0509415 0.474723 -3.49885 0.198898 -0.871806 -0.785027 
122 0.0468911 0.34893 1.00001 0.431103 -3.50076 0.879843 0.311046 0.13401 
163 0.0493774 0.396774 0.0509382 0.654446 -3.50783 0.0292653 0.865518 -0.349258 
128 0.0983478 0.351842 0.0490328 0.180205 -3.51471 0.300817 -0.504542 0.0133217 
167 0.151173 0.401839 0.050618 0.269584 -3.51207 -0.446213 -0.446641 -0.274654 
132 0.198327 0.349546 0.0507685 0.176113 -3.51449 0.0833971 0.0451091 -0.28078 
136 0.296233 0.34443 0.0470806 0.972512 -3.48502 0.544528 0.908702 0.841513 
171 0.252449 0.397134 0.0467665 1.12723 -3.48726 -1.2451 0.587383 0.632725 
134 0.348271 0.34334 0.999046 0.739948 -3.49421 -0.167502 0.770042 0.1109 
140 0.396904 0.348232 0.0519955 0.350971 -3.52532 0.0824462 -0.173963 -0.183817 
175 0.348386 0.39574 0.0483063 0.640557 -3.4824 -0.261151 0.700575 0.467419 
177 0.400231 0.397777 1.00181 0.177249 -3.49394 -0.0761666 0.184518 0.216772 
179 0.447989 0.400581 0.0531866 0.453854 -3.47635 0.712876 0.245879 -1.03463 
144 0.499056 0.346717 0.0485694 0.654365 -3.49558 0.0892234 0.785269 0.464407 
142 0.545778 0.350054 0.00182868 0.487111 -3.51197 0.695847 0.120258 -0.0469243 
181 0.497658 0.402978 1.00277 0.580547 -3.50684 0.281216 -0.107539 0.280096 
183 0.553636 0.396806 0.0536216 1.16219 -3.48237 -1.07221 0.977312 -0.979511 
146 0.649942 0.345053 1.00255 1.1213 -3.49095 0.510559 1.07319 -0.787105 
148 0.602004 0.352615 0.051305 0.689104 -3.48966 -0.0422093 -0.805795 -0.427222 
185 0.599173 0.399677 0.997905 0.623877 -3.50053 0.169995 -0.294549 0.447296 
187 0.653094 0.401086 0.0460235 0.890143 -3.48301 -0.692378 -1.12986 0.843101 
152 0.701278 0.349203 0.0511672 0.378938 -3.51822 0.140342 -0.261427 -0.42499 
189 0.703433 0.398184 0.995367 1.08733 -3.48299 -0.982222 0.430329 0.710904 
150 0.752445 0.350107 -0.00116208 0.154878 -3.52101 0.0857411 -0.100629 -0.115355 
191 0.748763 0.399777 0.0480171 0.506218 -3.50335 0.629078 -0.332842 0.157129 
156 0.805516 0.350521 0.0490969 0.290653 -3.52237 -0.402989 0.166063 -0.16329 
193 0.802279 0.398603 0.997023 0.326979 -3.52047 -0.369252 0.121884 0.24366 
154 0.852576 0.351833 -0.00262973 0.214465 -3.49907 0.36817 0.526121 -0.025892 
160 0.90354 0.352642 0.0472503 0.317167 -3.52361 -0.72234 -0.267973 0.151194 
195 0.851242 0.402211 0.0495756 0.404345 -3.51004 0.509162 -0.176805 -0.0638667 
197 0.904585 0.403888 -0.00381313 0.619979 -3.48619 -0.498034 -0.881139 0.46028 
124 -0.0021941 0.349219 0.0503744 0.325775 -3.51039 0.310322 0.339984 -0.266861 
199 0.950598 0.402039 0.0504607 0.357749 -3.51391 0.502912 -0.403585 -0.577045 
162 0.0487652 0.451482 0.00101669 0.42451 -3.49476 0.482795 -0.0494184 -0.127655 
166 0.15057 0.451648 1.00434 0.515049 -3.51423 -0.345131 -0.754154 -0.846395 
168 0.0990779 0.450901 0.0512488 0.188906 -3.50943 0.0335934 -0.120078 -0.418951 
172 0.200189 0.451705 0.0530697 0.583868 -3.47593 0.376933 -0.890299 -0.782965 
211 0.247976 0.499485 0.0482885 0.30704 -3.51936 0.166167 0.381866 -0.00718049 
170 0.248795 0.45019 0.997527 0.454067 -3.51449 -0.0408524 -0.474822 0.497561 
176 0.295433 0.451994 0.0505287 0.71164 -3.50414 0.915525 -0.420351 -0.369472 
174 0.349872 0.450212 0.00216018 0.144307 -3.52276 -0.16495 -0.0117543 0.181662 
180 0.399603 0.451083 0.0500343 0.199887 -3.51858 -0.0496442 -0.232636 -0.0373967 
178 0.451012 0.455527 0.00275102 1.05451 -3.49039 -0.319331 -1.09637 -0.279631 
182 0.552772 0.449428 0.00214703 0.417896 -3.50746 -0.345474 0.185342 0.198677 
184 0.500586 0.451476 0.0538627 0.401803 -3.50725 0.253415 -0.473501 -0.655468 
221 0.499779 0.499647 -0.00013838 0.255332 -3.49334 0.257173 0.196837 0.481114 
223 0.548518 0.501544 0.049357 0.444148 -3.51262 0.499911 -0.0513441 0.231286 
186 0.648059 0.448607 0.000112113 0.540114 -3.49911 0.991116 0.16292 -0.148904 
188 0.601635 0.447677 0.0505295 0.290466 -3.51332 -0.226576 0.304714 0.0651324 
227 0.648367 0.499361 0.0511531 0.372558 -3.49548 0.751046 -0.47808 -0.483515 
192 0.701196 0.447181 0.0481747 0.346129 -3.47953 -0.425378 0.770437 0.178694 
229 0.698383 0.500595 -0.00105967 0.181612 -3.51912 -0.0882702 -0.439986 0.109584 
196 0.803077 0.449707 0.0472142 0.430176 -3.51364 -0.470074 0.0689105 -0.196394 
194 0.853542 0.449578 -0.00227404 0.449252 -3.51728 -0.0963094 0.253029 0.513956 
200 0.901728 0.44961 0.0546158 0.967889 -3.49838 0.544616 0.465589 -1.57255 
164 0.00326677 0.451938 0.0486383 0.453754 -3.51505 -0.472259 -0.0281619 0.577781 
203 0.0501276 0.502523 0.0510932 0.1972 -3.51807 -0.215885 0.0964934 -0.304824 
204 0.996822 0.552371 0.0496242 0.204063 -3.48221 -0.0834871 -0.320382 0.513458 
206 0.154526 0.55154 0.00243981 0.873462 -3.49026 -0.811101 -0.0076349 -0.327239 
207 0.152618 0.499156 0.0529043 0.458811 -3.49612 -0.667844 0.684069 0.0916848 
208 0.099617 0.55548 0.0510631 0.844786 -3.47967 0.27277 -0.738143 0.055434 
212 0.198952 0.549991 0.0526523 0.243061 -3.5183 0.299435 0.0455066 -0.199589 
210 0.248235 0.549785 0.00166412 0.297521 -3.51541 0.0294452 -0.180154 -0.0741582 
216 0.300297 0.551805 0.049713 0.0978759 -3.51102 -0.260298 0.0625193 0.0520095 
214 0.35333 0.551645 0.000716532 0.46085 -3.49112 -1.00151 -0.629527 -0.277334 
215 0.346634 0.503248 0.0495509 0.426152 -3.51718 0.171574 -0.452323 -0.0248954 
217 0.39786 0.501378 0.00300816 0.463243 -3.50968 0.460161 -0.242962 -0.50003 
220 0.39788 0.549626 0.0526334 0.577076 -3.50623 0.882392 0.672818 -0.397655 
218 0.450954 0.548672 -0.00057129 0.17118 -3.51532 0.00874271 0.0989492 0.233803 
219 0.450059 0.501977 0.0509123 0.170574 -3.52157 -0.290262 -0.0221314 0.123834 
224 0.498553 0.551448 0.051774 0.286147 -3.51408 0.507449 0.133628 -0.188459 
222 0.552403 0.549552 1.00086 0.333575 -3.51957 -0.257168 0.172899 0.262594 
228 0.602959 0.550909 0.0474715 0.49226 -3.50153 -0.661352 0.0948631 0.230937 
232 0.698144 0.549196 0.0490169 0.210172 -3.51021 0.387284 0.32653 0.226249 
230 0.748779 0.549708 1.00092 0.147007 -3.52735 0.142608 0.1112 -0.121871 
231 0.748002 0.500532 0.0469769 0.414217 -3.5117 0.0563716 -0.399132 0.602156 
233 0.798282 0.499512 0.00185397 0.315975 -3.51696 0.280485 -0.0220249 -0.460405 
236 0.800102 0.551913 0.049097 0.230851 -3.51468 0.0951054 -0.132416 0.363114 
235 0.851126 0.500563 0.0485008 0.198852 -3.51592 0.184855 0.0481918 -0.107123 
240 0.901217 0.552804 0.0469945 0.49547 -3.51437 -0.33846 -0.437943 0.739095 
239 0.951743 0.501752 0.0508824 0.19189 -3.50401 -0.416527 -0.921614 -0.18161 
242 0.0461429 0.649003 0.99646 0.732986 -3.49363 0.241824 -0.0614471 0.981454 
243 0.0453916 0.597579 0.0526075 1.12095 -3.48874 0.901099 1.26552 -0.593619 
244 0.998415 0.651468 0.0487261 0.136399 -3.51145 0.0370455 -0.0969605 0.12932 
246 0.149874 0.649266 0.998976 0.237818 -3.5043 -0.0442194 0.261025 0.656253 
247 0.149099 0.600334 0.0522218 0.274969 -3.51467 0.0201212 0.345222 -0.115528 
248 0.097204 0.650791 0.0494501 0.213642 -3.48662 0.429618 -0.434204 -0.133191 
252 0.197245 0.650468 0.0495695 0.478117 -3.5206 0.489957 0.109371 0.148102 
250 0.253336 0.650363 1.00252 0.501603 -3.49254 -0.666395 0.437005 -0.28263 
251 0.252599 0.601255 0.0486789 0.303895 -3.5032 -0.313382 -0.156095 0.474611 
253 0.304098 0.599704 -0.000157977 0.444151 -3.51369 -0.431286 0.34104 0.223463 
256 0.303801 0.652449 0.0490702 0.246441 -3.52277 -0.249497 0.0238828 0.00221266 
254 0.351678 0.652892 0.999489 0.25905 -3.49955 -0.40188 -0.486528 -0.000169437 
255 0.352237 0.600585 0.0485905 0.155918 -3.51558 0.0403141 0.0309749 0.0813633 
257 0.401261 0.596328 0.995789 1.15247 -3.46295 0.319306 0.807782 1.39844 
260 0.399057 0.649058 0.0477274 0.363679 -3.47969 0.321066 1.00462 0.292581 
258 0.452093 0.647815 0.999492 0.509928 -3.50132 -0.301407 0.794563 0.0980537 
259 0.450208 0.599475 0.0475857 0.227849 -3.52232 -0.284488 0.0958494 0.298604 
261 0.50175 0.597569 -0.00114321 0.333321 -3.5255 -0.346759 0.172445 0.227079 
262 0.548666 0.649522 0.00224763 0.506202 -3.51113 0.165065 0.66427 -0.530687 
263 0.549525 0.602651 0.0500614 0.217324 -3.51729 0.0749161 -0.401039 0.191211 
264 0.500316 0.65189 0.0494035 0.20586 -3.51844 -0.302164 -0.250151 -0.089879 
266 0.650897 0.64944 0.000280715 0.261423 -3.50134 0.0691164 0.713166 -0.214932 
267 0.648529 0.60093 0.0477701 0.28711 -3.48435 0.57369 0.607238 0.729685 
268 0.603152 0.652529 0.047253 0.823475 -3.49314 -1.4924 -0.330802 0.224562 
272 0.701763 0.653231 0.0496421 0.544425 -3.51475 -0.707139 -0.576589 -0.158544 
271 0.750499 0.600163 0.0514751 0.247173 -3.52168 -0.351151 0.00807609 -0.268337 
276 0.799649 0.652015 0.0518666 0.46584 -3.49238 0.576163 -0.491355 -1.01181 
275 0.848758 0.603346 0.04744 0.500327 -3.49477 0.108266 -0.632669 0.853942 
280 0.902406 0.654588 0.0513766 0.948136 -3.48882 -0.909487 -0.592624 -0.781879 
278 0.946753 0.649487 -0.00459291 0.762888 -3.50406 0.635379 -0.103661 0.716739 
279 0.945664 0.605057 0.0490789 0.704293 -3.51518 0.788496 -0.696625 0.0697072 
283 0.0507484 0.697998 0.0505957 0.446014 -3.45178 -1.25138 0.857934 0.213374 
285 0.0992091 0.697663 0.998111 0.208107 -3.52623 0.0145658 -0.00717883 0.318776 
287 0.148575 0.701059 0.0494887 0.161525 -3.5214 0.0620336 -0.14202 -0.0170386 
289 0.203605 0.70042 1.00027 0.792636 -3.5069 -0.857377 -0.161898 -0.102038 
291 0.250167 0.702326 0.0481388 0.310188 -3.50795 0.0644213 -0.208204 0.739104 
295 0.350027 0.704803 0.0506264 0.520783 -3.50244 0.143495 -0.660888 0.350638 
297 0.398421 0.702544 1.00094 0.414277 -3.47811 1.19679 -0.498746 0.192886 
299 0.448653 0.70408 0.0502043 0.497831 -3.48708 -0.0817975 -1.02043 -0.557707 
301 0.499556 0.702637 0.999811 0.126553 -3.52437 0.0229471 -0.324762 0.00766427 
303 0.550824 0.70248 0.0499602 0.153549 -3.5255 -0.288876 -0.344219 -0.0721068 
305 0.598052 0.703047 0.000279575 0.333792 -3.51447 0.451412 -0.590215 -0.204682 
307 0.647656 0.699792 0.0507104 0.502116 -3.48989 0.728805 0.5522 -0.627109 
308 0.600519 0.750847 0.0498357 0.132483 -3.51547 0.0376895 0.400286 0.170994 
309 0.699555 0.699298 -0.00373083 0.471537 -3.49792 -0.467481 0.174555 0.73703 
311 0.750352 0.701404 0.0456993 0.471859 -3.51491 -0.114149 -0.0563873 0.803272 
313 0.801519 0.702784 1.00206 0.547211 -3.50786 -0.113201 -0.354472 -0.691044 
315 0.851015 0.703843 0.0495063 0.344231 -3.5086 0.206582 -0.570741 -0.196425 
317 0.89961 0.700582 0.995923 0.373859 -3.5102 0.0302023 0.584246 0.593964 
319 0.948452 0.700906 0.0465354 0.633949 -3.47889 0.303359 0.281131 0.831045 
323 0.0504659 0.801346 0.0495502 0.444894 -3.50858 -0.274252 -0.599598 -0.0174695 
288 0.0946284 0.748046 0.0509086 0.796353 -3.5002 1.589 0.917169 -0.576401 
325 0.0970277 0.795653 0.000151744 0.737873 -3.50778 0.92151 1.05375 -0.243027 
327 0.14801 0.803737 0.0481988 0.879601 -3.49949 0.216923 -0.903402 0.541039 
292 0.199381 0.754145 0.0499109 0.614296 -3.51019 -0.354442 -0.832353 0.186897 
290 0.249877 0.750943 0.00208208 0.216556 -3.49387 -0.0537713 -0.0352592 -0.561762 
296 0.30184 0.753592 0.0511937 0.505473 -3.4984 -0.537211 -0.363136 0.180769 
331 0.250791 0.798696 0.0527466 0.366571 -3.50698 0.039697 0.444737 -0.080077 
300 0.402549 0.751844 0.0513039 0.35594 -3.49143 -0.0491455 0.20842 -0.273394 
335 0.352845 0.796325 0.0482256 1.03095 -3.49788 0.017114 0.683714 -0.348759 
298 0.450786 0.755038 0.999225 0.50366 -3.51298 -0.330801 -0.637752 0.225058 
339 0.451141 0.803151 0.0488882 0.4467 -3.51145 -0.628841 -0.705945 0.327114 
304 0.500345 0.74954 0.0501687 0.318026 -3.5209 -0.0544477 0.308343 0.07056 
302 0.550007 0.753058 1.00257 0.606096 -3.49886 0.215818 -0.61261 -0.555509 
341 0.501224 0.79767 0.998173 0.570079 -3.47348 -0.127539 1.20814 0.534053 
343 0.548659 0.801237 0.0486149 0.21457 -3.50724 0.38105 -0.0173292 0.416965 
306 0.648403 0.753031 0.000210279 0.441809 -3.52192 0.0869359 -0.442499 -0.269333 
345 0.599433 0.803207 0.997487 0.404505 -3.51816 0.0464948 -0.355229 0.365812 
347 0.648144 0.801425 0.0499259 0.158775 -3.51963 0.211215 0.0526289 0.0768493 
312 0.699414 0.748771 0.0467255 0.421159 -3.51187 -0.0991565 0.47159 0.307404 
349 0.695407 0.804129 -0.00151672 0.925912 -3.50313 0.678423 -0.839636 0.177021 
310 0.747716 0.751318 0.998679 0.359227 -3.50618 0.096504 0.203731 -0.0568664 
316 0.801947 0.750935 0.0500464 0.419554 -3.51369 -0.342159 0.190945 -0.307084 
351 0.750296 0.802146 0.0485425 0.420356 -3.50303 -0.0323201 -0.576469 -0.434714 
314 0.850646 0.750868 0.9978 0.170523 -3.51355 0.199966 -0.231643 0.0385288 
320 0.900963 0.749675 0.0511924 0.20233 -3.5159 -0.144912 0.343908 -0.346344 
355 0.850513 0.798422 0.0511041 0.376394 -3.51098 0.044316 0.58826 -0.612657 
357 0.897569 0.798969 -0.00376337 0.609099 -3.50036 0.808914 -0.171592 0.761977 
284 -0.00219224 0.751044 0.0525337 0.471478 -3.50207 0.795379 -0.607281 -0.429985 
359 0.950747 0.7996 0.0516803 0.244656 -3.49982 -0.590152 -0.131792 -0.328839 
363 0.0498532 0.901345 0.0470229 0.52034 -3.5 0.344164 -0.542505 0.351203 
328 0.100097 0.850518 0.0482834 0.256657 -3.50579 -0.0610848 0.209236 0.198857 
365 0.100355 0.900303 -0.00345097 0.303232 -3.51231 -0.143912 -0.247739 0.702153 
367 0.150303 0.901856 0.0507272 0.33669 -3.51694 -0.208301 -0.252248 0.019595 
332 0.200335 0.852526 0.0498207 0.472444 -3.52412 0.0989986 -0.685919 -0.0707227 
369 0.197072 0.901847 0.001414 0.473208 -3.50893 0.677653 -0.407505 -0.489676 
371 0.253094 0.89919 0.0492364 0.277638 -3.49973 -0.0064276 -0.116072 -0.085117 
330 0.250335 0.847484 0.999384 0.430534 -3.50601 -0.0160777 0.724127 0.674363 
336 0.304702 0.847007 0.0496885 0.56184 -3.50104 -0.873765 0.811728 0.00922586 
334 0.350283 0.852595 1.00072 0.369626 -3.51374 0.800369 -0.544323 -0.208095 
340 0.398897 0.850209 0.0532289 0.653743 -3.50041 0.655243 -0.0274828 -1.05808 
375 0.351653 0.900244 0.04971 0.231567 -3.51651 -0.298651 -0.0886306 0.57449 
377 0.403918 0.899391 0.997921 0.646034 -3.51293 -0.626472 -0.0941823 0.551516 
379 0.449834 0.898748 0.0519027 0.232358 -3.51572 -0.0174802 -0.0252673 -0.371041 
344 0.498789 0.850586 0.0516339 0.288025 -3.47367 -0.123903 -0.0915477 -1.12542 
383 0.548909 0.899949 0.0493706 0.255156 -3.51274 0.321432 0.735655 0.302257 
348 0.597762 0.850691 0.0510426 0.321038 -3.52523 0.2263 -0.106964 -0.0168213 
385 0.601888 0.902937 1.00234 0.648319 -3.51832 -0.438251 -0.14384 -0.343619 
387 0.649659 0.898218 0.0537103 0.705398 -3.50363 0.16026 0.322915 -0.651684 
352 0.702609 0.848717 0.0472222 0.723016 -3.5058 -0.859948 0.728994 0.682415 
350 0.75027 0.848073 -0.00324042 0.306657 -3.52083 0.258446 0.211746 0.063996 
356 0.800946 0.850987 0.0459173 0.40783 -3.50556 0.198219 -0.268806 0.272561 
391 0.751524 0.898995 0.0475979 0.18498 -3.52605 -0.104383 0.221428 0.180568 
360 0.900853 0.848411 0.0462648 0.54011 -3.51137 -0.197999 -0.138903 0.703441 
395 0.853016 0.900633 0.049992 0.69686 -3.47541 -1.07867 -0.990841 -0.231556 
397 0.899424 0.896953 -0.000512868 0.295934 -3.51217 0.23656 0.242925 -0.165513 
324 0.995916 0.848714 0.0519226 0.691165 -3.50574 0.696509 0.171692 -0.369102 
361 0.999845 0.898797 1.00137 0.329039 -3.51444 -0.0742168 -0.0945115 -0.626194 
358 0.94984 0.846479 -0.00162487 0.408371 -3.52139 0.0869727 0.357616 0.0623731 
399 0.950716 0.897909 0.0500467 0.217871 -3.51065 -0.533226 0.374099 -0.122589 
362 0.0479678 0.949534 -0.00395925 0.545122 -3.51509 -0.00748707 -0.162673 0.888204 
368 0.0997309 0.950205 0.0489344 0.180495 -3.49811 0.159992 -0.344171 0.479165 
9 0.198878 0.00132781 0.999531 0.188968 -3.5226 -0.0381547 0.0856122 0.172073 
372 0.199981 0.952054 0.0468716 0.650868 -3.50018 -0.191576 -0.279628 0.80861 
370 0.249308 0.952943 0.00239178 0.506341 -3.49699 -0.00914167 -0.807231 -0.738488 
13 0.300183 -0.00117648 1.00077 0.180494 -3.51824 0.34521 0.322278 -0.15171 
376 0.299598 0.95077 0.0490987 0.29111 -3.51538 0.543223 -0.33108 0.369361 
374 0.350609 0.947668 1.00079 0.372717 -3.51236 0.14985 0.693619 -0.300862 
380 0.40087 0.948861 0.0496405 0.214508 -3.52334 0.0418082 0.0458388 0.347336 
384 0.497976 0.949315 0.0508215 0.315844 -3.49257 0.904544 0.00145409 -0.0130024 
27 0.647895 1.00044 0.0509656 0.274626 -3.51244 0.618807 -0.0603622 0.273205 
388 0.595262 0.951717 0.0483881 0.94839 -3.50767 0.487319 -0.224083 0.740858 
392 0.699993 0.951662 0.0532317 0.551145 -3.50962 0.00560702 -0.519949 -0.473808 
396 0.799654 0.94959 0.0461077 0.284184 -3.51106 -0.0670202 -0.20729 0.0699549 
35 0.851626 -0.00294475 0.0517016 0.739823 -3.49841 -0.384778 0.384512 -0.691185 
37 0.902057 0.999176 0.00016137 0.315058 -3.51342 -0.454199 -0.324777 0.0730812 
400 0.896949 0.946797 0.0480121 0.466028 -3.4844 1.01927 0.368199 0.179861 
364 0.999981 0.945588 0.0502044 0.533618 -3.49378 -0.310792 1.04441 -0.0111983 
398 0.948363 0.947214 0.998229 0.301192 -3.52253 0.256985 0.113958 0.444832 
402 0.0492602 0.0479974 0.101352 0.363352 -3.51595 -0.308706 0.421725 -0.346257 
403 0.0502934 1.00055 0.148493 0.212074 -3.4922 -0.0998615 -0.396007 0.0648707 
405 0.0985193 -0.00195255 0.101884 0.354463 -3.51219 0.426418 -0.0609068 -0.577865 
406 0.151012 0.0448106 0.102968 1.10079 -3.49712 -0.536706 1.12137 -0.809045 
408 0.099103 0.0524646 0.148395 0.586419 -3.50232 0.140038 -0.562229 0.561732 
412 0.200402 0.0474839 0.149864 0.170159 -3.51211 -0.0244126 0.181513 0.381557 
410 0.248288 0.0452032 0.102525 0.730597 -3.49309 0.352538 0.678091 -0.39795 
411 0.248109 0.995701 0.156 1.31918 -3.49065 0.506684 0.591138 -1.01688 
416 0.298529 0.047817 0.150095 0.411944 -3.51887 0.215763 -0.0281164 0.364141 
414 0.349857 0.0462809 0.101097 0.306925 -3.49665 0.221064 0.473358 0.0294257 
420 0.396104 0.0507283 0.151228 0.83424 -3.47641 1.14367 -0.729964 -0.053632 
418 0.450189 0.0504341 0.101294 0.187071 -3.52136 0.0591631 -0.211076 0.332078 
419 0.452134 0.998542 0.149785 0.60185 -3.51088 -0.252735 0.412888 0.0439931 
421 0.501573 1.00065 0.101475 0.220253 -3.48095 -0.307691 -0.119726 -0.0858877 
424 0.499968 0.0503034 0.153794 0.416257 -3.51401 -0.352176 0.129034 -0.366813 
422 0.548848 0.0523209 0.0981789 0.463469 -3.51464 0.0925007 -0.349615 0.52942 
426 0.649138 0.0514285 0.100035 0.190694 -3.52869 0.169796 -0.253208 0.271698 
427 0.651407 -0.00119499 0.150172 0.15928 -3.5219 -0.421673 0.390575 0.073077 
428 0.601176 0.0520445 0.15229 0.295441 -3.4992 0.0121033 -0.388477 -0.682422 
432 0.701621 0.0476434 0.149125 0.40229 -3.51481 -0.622207 0.72944 0.19253 
430 0.748838 0.0526793 0.100177 0.612723 -3.51396 0.311899 -0.387563 0.0810876 
431 0.748518 -0.00313016 0.148873 0.478487 -3.48289 0.0605151 0.686955 0.453923 
436 0.800057 0.0471635 0.147111 0.643478 -3.48797 0.882592 0.815549 1.20177 
434 0.848892 0.0512686 0.100389 0.401316 -3.49708 0.871379 -0.287731 -0.0068237 
437 0.899386 0.997889 0.0996111 0.233521 -3.47529 -0.545465 0.697293 0.0628096 
440 0.897394 0.0503811 0.152701 0.61029 -3.50774 0.202416 -0.569733 -1.39104 
401 0.999619 0.000633563 0.100832 0.317865 -3.50726 0.0449194 -0.475469 -0.312235 
404 -0.00361324 0.05172 0.150086 0.430754 -3.52759 0.128344 -0.0325883 -0.046595 
438 0.945305 0.0456841 0.0995894 0.817552 -3.50345 0.534923 0.779005 0.1038 
442 0.0460442 0.151274 0.100371 0.303879 -3.51858 0.37784 -0.150643 -0.201864 
443 0.0507087 0.0999076 0.148466 0.333885 -3.51415 -0.758609 0.222687 0.163774 
444 0.993802 0.150491 0.149093 0.679837 -3.50627 0.83061 -0.166029 -0.0867302 
445 0.0990001 0.100319 0.102257 0.240919 -3.47655 0.217067 -0.245664 -1.00996 
446 0.145336 0.151138 0.102895 0.857491 -3.48002 1.38006 -0.598734 -0.676834 
447 0.149975 0.0994013 0.146646 0.595603 -3.49984 -0.233781 -0.742487 1.34197 
448 0.0991206 0.150388 0.151551 0.373507 -3.4993 -0.311385 0.422819 -0.470206 
449 0.201055 0.0977543 0.0994498 0.316588 -3.4977 -0.446155 0.361901 0.044221 
452 0.197489 0.14849 0.151496 0.470242 -3.49646 0.213094 0.151838 -0.535568 
451 0.253384 0.100744 0.149579 0.935678 -3.50436 -0.617534 -0.479604 0.37605 
450 0.251257 0.145388 0.101199 0.340262 -3.50949 -0.0431166 0.57362 -0.319237 
453 0.303591 0.0963277 0.102029 0.477803 -3.49303 -0.794178 0.0809974 -1.1399 
456 0.303426 0.146873 0.14981 0.514628 -3.48458 -0.461671 0.543515 0.850218 
454 0.34719 0.145566 0.103556 1.1472 -3.46374 1.35746 0.775274 -0.274727 
455 0.351986 0.0959504 0.151086 0.346609 -3.44756 -0.513281 0.639027 0.432091 
457 0.401168 0.0984741 0.0986609 0.502963 -3.50696 -0.285082 0.366356 0.910738 
460 0.402063 0.150556 0.15363 0.404062 -3.48841 -0.663135 -0.75243 -0.503819 
458 0.450629 0.150652 0.104862 0.440233 -3.50325 0.355492 -0.303817 -0.700715 
459 0.451068 0.101264 0.149668 0.382293 -3.51913 -0.175604 -0.644461 0.402806 
464 0.499407 0.150297 0.154915 0.477887 -3.50514 0.115805 -0.108759 -0.742251 
461 0.50092 0.101506 0.101722 0.237072 -3.5227 -0.320363 -0.294224 0.0612898 
462 0.547797 0.152011 0.101981 0.30219 -3.49642 -0.0224898 -0.535043 -0.790206 
463 0.550307 0.10046 0.151341 0.167557 -3.52723 -0.130617 -0.0864358 -0.175515 
465 0.598299 0.10061 0.100218 0.139471 -3.52481 0.0392008 0.152105 -0.18548 
466 0.652278 0.149724 0.0978871 0.530651 -3.50796 -0.735725 0.401447 0.226276 
467 0.650563 0.104236 0.148527 0.529015 -3.49926 -0.119289 -0.726607 0.44259 
468 0.595478 0.151941 0.147539 0.79192 -3.49515 1.03231 -0.256725 0.505235 
469 0.699007 0.101905 0.101232 0.358375 -3.49874 0.495154 -0.347184 0.117489 
472 0.701668 0.153876 0.151721 0.812341 -3.49908 0.419719 -0.908541 -0.183619 
471 0.754003 0.0990943 0.15141 0.27098 -3.50387 -0.480396 0.673491 -0.63317 
470 0.753201 0.145774 0.101237 0.781219 -3.51219 -0.385554 0.427798 0.359549 
473 0.805104 0.0999527 0.101116 0.813895 -3.45577 -1.49101 -0.130231 -0.461514 
476 0.804223 0.151683 0.150452 0.207325 -3.51126 -0.805857 -0.602124 0.118142 
474 0.846975 0.147777 0.0993906 0.78611 -3.47199 1.38889 1.24837 -0.100344 
475 0.852799 0.103531 0.15175 0.748267 -3.44784 -1.12336 -2.15109 0.54647 
477 0.900084 0.100656 0.102061 0.605395 -3.47966 -0.705511 -0.484881 -0.55338 
480 0.899261 0.152012 0.148326 0.30383 -3.50883 0.532792 -0.0339483 0.500711 
441 0.9985 0.100004 0.100217 0.259363 -3.52078 0.0292665 -0.280796 0.111516 
478 0.950128 0.150411 0.0964727 0.652595 -3.50089 -0.746709 0.467197 0.93773 
479 0.944454 0.098855 0.1468 0.744411 -3.47615 1.08307 0.234192 0.862297 
483 0.0490556 0.199913 0.148114 0.210661 -3.5221 -0.0949043 0.17889 0.267244 
484 -0.001888 0.250846 0.145907 0.399056 -3.51174 0.24083 0.0678243 0.505704 
485 0.0998817 0.201215 0.099234 0.291795 -3.51785 -0.414336 -0.113075 0.414597 
487 0.147598 0.206712 0.149185 1.41222 -3.5026 0.528086 -1.10725 -0.242521 
488 0.0968028 0.25235 0.147451 0.4211 -3.49403 0.0551904 -0.508273 0.717983 
489 0.198833 0.198008 0.0985253 0.522873 -3.47322 0.0404397 0.404809 0.464992 
491 0.25034 0.195526 0.151175 0.501591 -3.50103 -0.108736 0.825714 -0.27916 