ITEM: TIMESTEP
0
ITEM: NUMBER OF ATOMS
4000
ITEM: BOX BOUNDS pp pp pp
-9.7942827993243498e-02 3.6197942827993273e+01
-9.7942827993243498e-02 3.6197942827993273e+01
-9.7942827993243498e-02 3.6197942827993273e+01
ITEM: ATOMS id xs ys zs c_csym c_peratom fx fy fz 
3 0.0511233 0.000632612 0.0519146 0.508055 -3.51873 -0.318819 0.256714 -0.261709 
5 0.100258 0.0023866 0.00163163 0.530023 -3.51187 -0.230329 -0.311517 -0.422762 
7 0.150038 0.00223776 0.0508678 0.338413 -3.5147 0.279281 -0.185853 -0.405907 
8 0.0991625 0.0525113 0.0452265 0.885625 -3.45347 0.00640215 -0.630547 1.17667 
12 0.201079 0.049617 0.0525407 0.33986 -3.52225 -0.135526 -0.257357 -0.268829 
11 0.249407 0.00104333 0.0534692 0.462309 -3.51639 0.427042 -0.456141 -0.429424 
10 0.250258 0.0493704 0.00148083 0.163776 -3.5265 -0.0519098 0.0105306 -0.0882297 
16 0.301505 0.0484049 0.0503071 0.33602 -3.49506 -0.324106 0.422155 0.472521 
14 0.347625 0.0514629 0.00269281 0.422439 -3.51044 0.360122 -0.0721009 -0.547411 
15 0.349307 0.000454226 0.0492565 0.268007 -3.50444 0.085595 -0.0728417 0.184962 
20 0.396516 0.0490163 0.0500714 0.562761 -3.52095 0.588937 0.39234 0.172475 
18 0.449046 0.0521495 0.0030407 0.448588 -3.4955 -0.112843 0.119007 -0.646263 
19 0.450111 0.00322111 0.0479582 0.449514 -3.50446 -0.309157 -0.647945 0.368919 
24 0.499377 0.0512508 0.0536214 0.544032 -3.50567 0.0777613 0.70883 -0.521674 
22 0.547042 0.048196 0.00214615 1.06574 -3.47638 0.612794 1.1284 -0.208767 
23 0.547694 0.00133464 0.0485582 0.249581 -3.50628 0.302619 -0.247654 0.356208 
28 0.603654 0.0514766 0.0493594 0.67104 -3.50544 -0.77362 -0.30261 0.161166 
32 0.69999 0.0506624 0.0493027 0.0950353 -3.51343 -0.457703 0.0663536 -0.200376 
31 0.747748 0.00244659 0.0473229 0.42352 -3.5054 0.382626 -0.811663 -0.122558 
36 0.799497 0.050396 0.0456823 0.272416 -3.51858 -0.168179 0.0404852 0.198401 
40 0.897086 0.0484026 0.049122 0.43603 -3.49813 0.561873 0.263601 -0.577663 
4 0.999219 0.0479576 0.0463227 0.559772 -3.52076 -0.100644 0.323478 0.37388 
39 0.947868 0.000884993 0.0508066 0.219457 -3.51521 0.310944 0.347495 -0.4238 
43 0.0500231 0.0991311 0.0502315 0.30874 -3.51695 -0.243711 0.222194 -0.25899 
44 7.5927e-05 0.149085 0.0485786 0.121008 -3.52622 -0.0274198 0.26887 0.149643 
45 0.0986852 0.0967014 0.000540927 0.794141 -3.47331 -0.0471886 0.713373 -0.883463 
47 0.150985 0.098002 0.0470989 0.598456 -3.51009 -0.112139 0.490745 0.68793 
48 0.101836 0.147387 0.0481901 0.360116 -3.52211 -0.275478 -0.089858 0.151905 
49 0.199847 0.0982171 0.00252627 0.52361 -3.47644 0.0795424 -0.146385 -1.09393 
52 0.201408 0.14839 0.0493546 0.298754 -3.49567 -0.793057 0.190813 0.265736 
51 0.247182 0.101246 0.0504616 0.617045 -3.51084 1.02491 -0.463063 -0.115467 
50 0.253319 0.15025 0.000187156 0.673887 -3.51747 -0.794664 -0.0739206 -0.0208951 
53 0.299035 0.0995395 0.000345517 0.0626809 -3.51885 0.00554882 0.150495 0.0738914 
56 0.298475 0.1517 0.0507007 0.184173 -3.52224 0.187197 -0.354287 0.0717482 
55 0.349184 0.100978 0.0535057 0.254196 -3.51455 -0.292031 0.0119789 -0.290028 
57 0.400421 0.100812 0.00339777 0.285405 -3.52575 -0.38787 0.0506061 -0.303514 
60 0.396577 0.150586 0.0517487 0.327785 -3.51828 0.135596 0.173504 -0.325594 
58 0.449395 0.149293 0.00178116 0.288434 -3.51356 -0.0374556 0.0290478 -0.520713 
59 0.449608 0.103383 0.0520157 0.475838 -3.4928 -0.310396 -1.46719 -0.569444 
63 0.553344 0.102228 0.0531437 0.849117 -3.49235 -0.504879 -0.401111 -1.01153 
64 0.500086 0.148838 0.0478948 0.542914 -3.50336 -0.115757 1.08316 0.815894 
66 0.649508 0.150897 0.0013591 0.232494 -3.50586 0.393323 -0.439141 -0.409847 
67 0.648414 0.10152 0.0521293 0.403453 -3.50219 0.242797 0.111499 -0.520848 
68 0.599174 0.154109 0.0481093 0.629944 -3.50896 0.0588034 -0.301658 0.307083 
72 0.698356 0.149563 0.0509677 0.272026 -3.50883 0.267231 0.583727 -0.112547 
71 0.746601 0.101266 0.0499771 0.571324 -3.50245 0.769823 -0.185937 -0.373035 
76 0.800172 0.147557 0.0484158 0.66753 -3.51496 -0.142356 0.401969 -0.0240043 
74 0.849828 0.153494 6.63565e-05 0.468281 -3.52422 -0.122269 -0.401147 -0.175563 
75 0.852282 0.10092 0.0483611 0.401547 -3.51283 -0.612899 0.0918903 -0.346594 
80 0.899568 0.150546 0.0486273 0.112603 -3.5092 0.104407 0.214967 -0.230317 
79 0.947876 0.0991602 0.048021 0.208233 -3.51749 0.120738 0.154684 -0.315051 
83 0.0527326 0.198677 0.0475942 0.455497 -3.50074 -0.636632 0.230181 0.337333 
87 0.148929 0.200695 0.0460122 0.456839 -3.48213 0.153813 -0.841835 0.864287 
91 0.246872 0.200965 0.0502024 0.39674 -3.51811 0.435316 -0.229126 -0.169575 
92 0.198666 0.247809 0.0469276 0.422758 -3.50853 0.273012 0.673851 0.502915 
96 0.298584 0.246623 0.0506778 0.63745 -3.51446 -0.00533374 0.500706 -0.291419 
95 0.347892 0.199848 0.0540011 0.519011 -3.50598 0.20741 0.0380459 -0.78117 
94 0.348239 0.248005 0.0011067 0.305532 -3.52648 0.197622 0.0405552 0.197224 
100 0.398354 0.249947 0.050422 0.213286 -3.51286 0.373756 -0.322609 0.017565 
99 0.450307 0.198338 0.0467085 0.735892 -3.50607 -0.210246 0.122814 0.75889 
98 0.449181 0.249864 0.000617783 0.142912 -3.52936 0.14107 -0.0126051 -0.0923373 
103 0.549278 0.201355 0.0526148 0.427573 -3.51054 0.0883532 -0.224332 -0.695415 
102 0.549028 0.247994 9.99985e-05 0.378151 -3.48657 0.420926 0.870636 -0.206242 
107 0.650422 0.201288 0.050659 0.147071 -3.5289 -0.183357 -0.0872907 0.0186802 
108 0.599601 0.248983 0.0481187 0.558967 -3.51988 0.33815 0.233766 0.427653 
109 0.698358 0.199903 0.000663324 0.22159 -3.52853 0.234339 0.210887 -0.0250951 
111 0.752207 0.203908 0.0489452 0.589343 -3.49476 -0.407498 -0.813139 0.380232 
115 0.850119 0.20136 0.0496799 0.235571 -3.50605 -0.0911821 0.0965959 -0.327016 
120 0.90209 0.24813 0.0516881 0.725484 -3.50197 -0.350314 0.498794 -0.411018 
119 0.951342 0.202594 0.046378 0.612294 -3.50994 -0.271476 -0.343436 0.291818 
84 8.69518e-05 0.251234 0.0499187 0.184108 -3.50686 -0.0363379 -0.100549 -0.156576 
123 0.0491185 0.299097 0.0480707 0.348853 -3.52837 0.240478 0.381918 0.236921 
88 0.0997531 0.251445 0.0494973 0.274725 -3.51453 -0.128557 -0.224883 -0.235072 
125 0.101377 0.299165 0.000427055 0.283778 -3.52737 -0.311294 0.375234 -0.219152 
127 0.149865 0.299873 0.0500336 0.11788 -3.52133 0.0576781 0.37253 -0.0480683 
129 0.199357 0.299397 0.00196465 0.448985 -3.51953 0.180519 0.350096 -0.379728 
131 0.251691 0.300664 0.0481951 0.283106 -3.51919 -0.616585 -0.0630189 0.115301 
135 0.352201 0.299725 0.0489187 0.345499 -3.46948 -0.153637 0.0488382 0.603262 
137 0.401168 0.299608 0.0041409 0.664745 -3.49591 0.403629 0.206317 -0.720822 
139 0.45079 0.300639 0.0519315 0.27811 -3.51537 -0.392766 -0.0941353 -0.0622987 
104 0.496899 0.250912 0.0546236 1.03788 -3.49856 0.384885 -0.156997 -0.934809 
143 0.551067 0.297358 0.0510002 0.290474 -3.52185 -0.316957 0.220775 -0.232782 
106 0.651552 0.252252 0.0017659 0.268459 -3.51828 -0.4211 -0.251822 -0.0801987 
147 0.649819 0.301674 0.0556781 0.767765 -3.50487 -0.0919519 -0.523814 -0.494308 
112 0.699335 0.251773 0.0507447 0.143991 -3.51417 -0.0117076 -0.0957303 0.106931 
149 0.696726 0.30154 0.00456807 0.470821 -3.50671 0.357086 0.0779218 -0.466753 
110 0.747782 0.250666 0.00314155 0.447585 -3.50788 -0.0733528 0.527593 -0.659268 
116 0.799391 0.255734 0.0488156 0.620684 -3.50538 0.461749 -0.913227 0.0106637 
151 0.752062 0.302143 0.0507173 0.500051 -3.51474 -0.701545 0.129467 -0.0266837 
155 0.852568 0.300479 0.0489132 0.633127 -3.50974 0.297462 0.201205 0.319986 
159 0.948178 0.301601 0.0466769 0.617067 -3.48116 0.342163 -0.590617 0.93881 
122 0.0514532 0.352042 0.00064299 0.363256 -3.50313 -0.366235 -0.996795 -0.545061 
163 0.0496933 0.397064 0.0522763 0.461728 -3.49589 0.0599889 0.892273 -0.613267 
128 0.0997726 0.349356 0.0510597 0.135085 -3.52501 0.230377 0.0751169 -0.373854 
167 0.147949 0.401372 0.0515433 0.501638 -3.49008 0.490158 -1.02013 -0.100246 
132 0.204128 0.350887 0.051028 0.735113 -3.49666 -0.867619 -0.183351 -0.482954 
136 0.29943 0.34955 0.0499365 0.1994 -3.51972 -0.0127622 0.17946 -0.0352558 
171 0.250594 0.40164 0.0499307 0.36543 -3.50492 -0.109766 -0.492605 0.0807295 
134 0.349793 0.344409 0.000886203 1.26202 -3.44379 0.386565 2.17459 0.330494 
140 0.404744 0.355392 0.0509902 1.63009 -3.47452 -0.822504 -1.05558 -0.203588 
175 0.350187 0.403462 0.0526566 0.715452 -3.48474 0.0021977 -0.87244 -0.761198 
177 0.402863 0.400771 0.00136521 0.397669 -3.48693 -1.01128 -0.21556 0.38534 
179 0.452874 0.399999 0.0514275 0.234295 -3.49943 -0.0604356 -0.220918 -0.00704626 
144 0.497245 0.348619 0.0475261 0.750478 -3.51102 0.640524 -0.0374027 0.378091 
142 0.54969 0.348069 0.000542279 0.159437 -3.52591 -0.233367 -0.116733 0.0560851 
181 0.500771 0.400376 0.00196488 0.193495 -3.51204 0.202551 -0.286401 -0.0803064 
183 0.549431 0.397705 0.050836 0.142531 -3.52508 0.142392 -0.161426 0.178388 
146 0.650364 0.351676 0.00165205 0.313636 -3.5112 -0.22428 -0.232646 -0.0227876 
148 0.600377 0.348051 0.0511567 0.161823 -3.52495 -0.333185 0.161076 -0.00131123 
185 0.597959 0.398648 0.00302025 0.281737 -3.51539 0.529715 0.138829 -0.36111 
187 0.649994 0.399707 0.0511625 0.113296 -3.52592 -0.159586 0.210338 -0.0348756 
152 0.698934 0.350113 0.0520393 0.139658 -3.51843 -0.0812703 -0.175529 0.0145107 
189 0.703413 0.402151 0.00299413 0.796293 -3.48197 -0.991641 0.400409 -0.593318 
150 0.745617 0.353123 0.00276834 0.702782 -3.49062 0.387117 -0.871147 -0.509038 
191 0.749574 0.401176 0.0495005 0.248653 -3.49777 0.125579 0.146163 0.762972 
156 0.799178 0.3511 0.0517837 0.223057 -3.50309 -0.0618931 0.441147 -0.329575 
193 0.796784 0.397768 0.00154843 0.592416 -3.50722 0.796352 0.396903 -0.0273546 
154 0.848718 0.350371 0.0030205 0.393542 -3.51715 0.138844 0.111391 -0.298731 
160 0.9002 0.357146 0.0499891 1.14921 -3.4625 -0.260616 -1.97405 0.248139 
195 0.852234 0.400493 0.0534977 0.813602 -3.48443 -1.26144 0.95952 -1.32396 
197 0.900289 0.403334 0.000442878 0.387771 -3.50224 -0.6213 -0.357324 -0.450429 
124 0.999936 0.34774 0.0501014 0.410506 -3.50684 -0.24322 0.677054 0.0563265 
199 0.948301 0.401225 0.0479096 0.304571 -3.48164 0.832757 -0.116743 0.524697 
162 0.0499905 0.44871 0.00259591 0.469536 -3.50419 -0.284158 0.0735845 -0.0293844 
166 0.147946 0.450653 0.00146631 0.448815 -3.49772 0.890635 -0.101945 -0.187611 
168 0.103623 0.446989 0.0501342 0.82772 -3.47863 -0.928968 0.538777 0.250984 
172 0.19838 0.446029 0.0501819 0.843411 -3.4805 -0.7216 0.689083 -0.789127 
211 0.247669 0.499006 0.0462654 0.526774 -3.49157 0.744357 0.313751 0.740753 
170 0.253156 0.448989 0.00255707 0.645507 -3.48757 -1.05116 0.0656479 -0.608273 
176 0.299551 0.447171 0.0526568 0.656817 -3.5011 0.169363 0.81429 -0.114958 
174 0.351392 0.450572 0.00045529 0.341776 -3.51127 0.0212765 -0.144046 0.584398 
180 0.402227 0.44733 0.0552653 0.971182 -3.48559 -0.118279 1.17155 -1.09645 
178 0.452635 0.449693 0.00478365 0.231659 -3.50762 -0.299741 0.577987 -0.16138 
182 0.552213 0.447801 0.00177372 0.260308 -3.51363 -0.0842773 0.476827 -0.25256 
184 0.502541 0.446451 0.054249 0.542653 -3.49055 -0.304073 1.28136 -0.801272 
221 0.501755 0.498752 0.00117065 0.325335 -3.50608 -0.224842 0.283833 0.47379 
223 0.551085 0.497297 0.0492542 0.48048 -3.50348 -0.261381 0.413654 0.444403 
186 0.6493 0.450625 0.000143347 0.275861 -3.49598 0.274909 -0.640607 0.0656845 
188 0.598523 0.449331 0.054186 0.343194 -3.52271 0.339018 -0.223385 -0.50968 
227 0.647621 0.498191 0.0509566 0.27433 -3.51382 0.189071 -0.0113528 0.0943786 
192 0.698222 0.452521 0.0506443 0.430906 -3.50877 0.333309 -0.29975 0.0319148 
229 0.702679 0.499544 0.00218666 0.359863 -3.50778 -0.100383 -0.270427 -0.611054 
196 0.801041 0.448169 0.0517973 0.481813 -3.50242 -0.628756 0.924709 -0.212653 
194 0.845232 0.451687 0.00132749 0.857864 -3.50228 0.972139 -0.598931 -0.375621 
200 0.898715 0.452095 0.0488257 0.226982 -3.52295 0.110054 0.0906891 0.324159 
164 0.996155 0.450701 0.0522048 0.952736 -3.50491 0.963886 -0.353051 -0.668688 
203 0.0516399 0.500922 0.0488181 0.330332 -3.51089 0.0897323 -0.342466 0.289451 
204 0.000466279 0.547412 0.0524208 0.56469 -3.50901 0.382237 0.728681 -0.707079 
206 0.15146 0.55031 0.0022195 0.729657 -3.45108 -0.649674 0.658484 -1.32714 
207 0.148164 0.502366 0.0500595 0.512913 -3.48927 0.409987 -1.08061 -0.573887 
208 0.101076 0.553829 0.0462697 0.896587 -3.48678 -0.480946 -1.14031 1.19561 
212 0.197591 0.55429 0.0473047 0.681513 -3.48873 0.341361 -0.0288504 0.425583 
210 0.249098 0.552657 0.00183988 0.484567 -3.49642 0.229802 -0.537177 -0.80836 
216 0.296478 0.548678 0.0471447 0.539277 -3.49776 0.314824 0.0182091 0.843727 
214 0.348433 0.548497 0.00309459 0.410499 -3.50272 -0.0186165 0.453542 -0.621548 
215 0.348253 0.500284 0.0491276 0.404565 -3.50289 0.16502 -0.533826 0.735166 
217 0.399183 0.501607 0.00399287 0.23797 -3.50407 0.559243 -0.307448 0.0807722 
220 0.396506 0.551182 0.0549326 0.584374 -3.50163 0.46613 -0.258931 -0.642856 
218 0.451098 0.549832 0.003115 0.33411 -3.51617 -0.14472 0.2017 -0.148727 
219 0.45196 0.503898 0.0540676 0.735078 -3.47817 -0.0530622 -1.22976 -0.997642 
224 0.499157 0.552448 0.0549876 0.56317 -3.50252 0.407702 -0.206883 -0.49428 
222 0.550376 0.551654 0.00227857 0.179431 -3.50577 -0.305478 -0.327484 -0.0258131 
228 0.600905 0.548969 0.0484917 0.263864 -3.52167 -0.302439 -0.0759251 0.374567 
232 0.699835 0.548924 0.0481022 0.277425 -3.50594 0.221863 0.102713 0.461331 
230 0.749481 0.54745 0.000849925 0.695178 -3.50481 0.782793 1.27535 -0.0372245 
231 0.752464 0.500216 0.05277 0.376686 -3.51095 -0.0434113 -0.0356449 -0.402957 
233 0.801146 0.502113 0.000696086 0.280493 -3.50405 -0.159834 -0.0216821 0.170904 
236 0.802872 0.551336 0.0483077 0.349847 -3.50643 -0.406408 0.16796 -0.274544 
235 0.847768 0.500456 0.0518144 0.436122 -3.50298 0.477164 -0.111346 -0.371113 
240 0.900904 0.550201 0.0489409 0.211123 -3.52239 -0.173979 -0.166852 0.0185507 
239 0.951334 0.501788 0.0486267 0.308246 -3.50797 -0.296468 -0.28024 0.52844 
242 0.0502553 0.652564 0.00275593 0.461458 -3.49022 0.160404 -0.479581 -0.983725 
243 0.0530503 0.601515 0.0504575 0.482044 -3.47258 -1.19762 -0.384112 -0.218725 
244 0.00115438 0.648914 0.0478292 0.256135 -3.5014 -0.0592548 -0.233947 0.82064 
246 0.147462 0.653957 0.00165136 0.408563 -3.49503 0.378767 -0.374369 -0.335991 
247 0.145409 0.603239 0.0469872 0.920906 -3.48308 0.855891 -0.245361 0.642429 
248 0.0977873 0.649823 0.0522327 0.541825 -3.50004 0.535594 0.568016 -0.167437 
252 0.19709 0.651506 0.0494599 0.372869 -3.51194 0.233658 -0.0508276 0.389929 
250 0.251988 0.652435 0.00190179 0.25363 -3.51319 -0.374019 -0.168518 0.191237 
251 0.251939 0.601842 0.0502249 0.417026 -3.50657 -0.647685 0.257297 -0.215349 
253 0.302447 0.60112 0.00229991 0.316617 -3.5167 -0.29742 -0.017663 -0.553936 
256 0.303244 0.651243 0.0496632 0.562853 -3.51198 -0.545648 0.338234 0.203689 
254 0.353936 0.650471 0.0035578 0.626621 -3.50529 -0.661524 0.218729 -0.891078 
255 0.346661 0.596524 0.0511658 0.59948 -3.48374 0.60443 1.09921 0.185478 
257 0.397966 0.598299 0.0018398 0.48694 -3.51141 0.630751 0.540785 0.766301 
260 0.397597 0.652049 0.0539112 0.631464 -3.48443 0.575415 -0.950086 -0.41879 
258 0.45002 0.651572 0.00384145 0.225444 -3.5091 -0.170323 -0.217309 -0.0459483 
259 0.448144 0.602049 0.0505177 0.323843 -3.52675 0.0683832 -0.221521 0.323103 
261 0.500252 0.601415 0.00231269 0.0916303 -3.53421 -0.0241846 -0.0656751 0.0198651 
262 0.552252 0.651247 0.00406465 0.408779 -3.4924 -0.549852 0.312646 -0.519317 
263 0.549105 0.60222 0.0536472 0.444641 -3.51357 0.0258544 -0.502446 -0.339617 
264 0.500361 0.651205 0.0514245 0.122085 -3.51899 0.139069 0.105513 0.14396 
266 0.650215 0.650591 0.000281069 0.0819557 -3.50821 -0.0980266 0.0126797 0.253317 
267 0.650065 0.596189 0.0500767 0.425116 -3.5102 0.00802732 0.732309 -0.16421 
268 0.599014 0.652128 0.0494266 0.313348 -3.49362 0.668571 -0.313908 0.421494 
272 0.699296 0.64993 0.0498746 0.150423 -3.52109 0.181294 -0.019364 -0.108612 
271 0.75079 0.600776 0.0475428 0.196917 -3.52241 -0.062434 -0.0721105 0.26093 
276 0.79995 0.651933 0.051781 0.510044 -3.50999 -0.0899611 -0.319041 -0.19853 
275 0.851532 0.602729 0.044392 0.832775 -3.49745 -0.483503 -0.393574 0.655747 
280 0.899321 0.648578 0.0515055 0.603046 -3.49483 0.504911 0.246939 -0.678353 
278 0.950948 0.647865 0.000928804 0.306058 -3.51435 -0.0429464 0.184719 -0.0725236 
279 0.950973 0.595868 0.0508611 0.550854 -3.51802 0.0152324 0.626276 -0.588311 
283 0.049899 0.698564 0.0484248 0.474333 -3.49053 0.195164 1.14168 0.661001 
285 0.102323 0.701614 0.00379811 0.786891 -3.50266 -0.480023 0.418648 -0.458029 
287 0.150682 0.703135 0.0509777 0.27302 -3.50054 -0.0748167 -0.172705 0.04726 
289 0.201275 0.704534 0.00210799 0.52788 -3.49538 -0.435082 -0.840982 -1.0335 
291 0.246122 0.701182 0.051215 0.744539 -3.49249 1.07121 -0.186487 0.00655473 
295 0.352582 0.701668 0.0466904 0.633546 -3.50235 -0.697965 0.194005 0.557571 
297 0.404232 0.703284 0.00298592 0.575593 -3.49067 -0.258142 -0.643092 -0.339446 
299 0.452074 0.702172 0.0514792 0.252375 -3.50833 -0.284808 -0.449086 -0.054494 
301 0.499022 0.702695 0.0014316 0.186933 -3.51114 0.493949 -0.454331 -0.0281033 
303 0.550211 0.705266 0.0552135 0.869157 -3.48997 -0.514412 -0.866119 -0.699737 
305 0.600899 0.702399 0.00364499 0.157543 -3.52238 -0.130079 -0.0450887 -0.439725 
307 0.650682 0.702116 0.0521061 0.210918 -3.52077 -0.164813 -0.247843 0.0230611 
308 0.598567 0.749845 0.0531947 0.370688 -3.50236 0.295034 0.643187 -0.0939417 
309 0.698281 0.703616 0.0046197 0.882626 -3.50221 0.113389 -0.526048 -0.807508 
311 0.750769 0.703918 0.0474602 0.898199 -3.4935 -0.766706 -0.956835 0.994753 
313 0.798337 0.69946 0.00231032 0.286124 -3.48477 0.841143 0.390775 -0.545906 
315 0.851148 0.701607 0.0505076 0.220101 -3.51486 -0.442371 -0.0230485 -0.0527764 
317 0.900218 0.699106 0.00281629 0.432721 -3.51249 0.148286 0.141849 -0.583428 
319 0.951985 0.69944 0.046385 0.598949 -3.51925 0.0367447 -0.0867432 0.317898 
323 0.0493597 0.796208 0.0472565 0.816067 -3.50236 -0.507967 1.51547 1.15621 
288 0.101537 0.752347 0.0501325 0.309333 -3.47624 -0.203839 -0.863359 -0.72944 
325 0.100781 0.799809 0.00071051 0.3553 -3.51077 -0.278346 0.290986 -0.179737 
327 0.152489 0.801564 0.0500586 0.262323 -3.49999 -0.358765 -0.133455 -0.604627 
292 0.201275 0.7502 0.0499433 0.128731 -3.4609 -0.622372 0.519616 -0.218745 
290 0.251524 0.753669 0.00220356 0.421414 -3.50748 0.0473635 -0.108846 -0.526217 
296 0.298309 0.751981 0.0504047 0.416743 -3.49354 0.770329 -0.0408674 -0.290626 
331 0.250321 0.799168 0.0507814 0.302271 -3.4702 -0.0366846 0.256152 -0.562157 
300 0.399472 0.75013 0.0487167 0.490561 -3.49679 0.136229 0.723892 0.178741 
335 0.355899 0.802655 0.048476 0.87224 -3.50666 -0.997922 -0.245822 0.326408 
298 0.449325 0.7509 0.00198755 0.247991 -3.50511 0.137436 0.460933 -0.0547045 
339 0.452273 0.801016 0.0493186 0.215858 -3.52143 -0.481749 0.0388394 0.14817 
304 0.49889 0.750478 0.0510401 0.186912 -3.52124 0.259557 0.405823 0.0613897 
302 0.550011 0.751306 0.0032808 0.15785 -3.52747 -0.100965 -0.108822 -0.353762 
341 0.500565 0.801178 0.00182116 0.147225 -3.52633 0.00670923 0.232703 -0.34282 
343 0.549704 0.803355 0.0498173 0.340522 -3.51774 -0.172843 -0.48718 0.0877691 
306 0.64776 0.752688 0.00270219 0.32323 -3.49065 0.86946 -0.459082 -0.0494558 
345 0.601721 0.797139 0.00279986 0.592776 -3.49199 -0.774955 0.742859 0.052816 
347 0.648449 0.801865 0.0510341 0.163028 -3.51865 0.41221 0.294362 0.332746 
312 0.701102 0.754099 0.0507429 0.357479 -3.5164 -0.149904 0.107284 0.268468 
349 0.699617 0.80235 0.000836328 0.152397 -3.52665 -0.0670711 -0.176767 0.244614 
310 0.749973 0.750871 0.00201036 0.0907096 -3.47603 0.110603 0.298886 -0.345827 
316 0.797567 0.750707 0.055018 0.948788 -3.48563 0.474162 0.494578 -1.12573 
351 0.750626 0.807648 0.0509738 0.969986 -3.48029 -0.498211 -1.25371 -0.0823227 
314 0.849925 0.750477 0.0038488 0.329501 -3.51256 -0.144502 -0.105851 -0.264543 
320 0.906031 0.751004 0.0487552 1.26214 -3.50034 -1.31545 -0.300799 0.501351 
355 0.852433 0.801386 0.0514387 0.494894 -3.48521 -0.79008 -0.0533863 -0.127206 
357 0.900314 0.799064 0.00125952 0.299012 -3.48062 -0.463773 0.370616 -0.619085 
284 0.996839 0.751438 0.0523657 0.992424 -3.49765 0.473482 -0.397533 -0.451976 
359 0.947803 0.802105 0.0544895 1.1774 -3.46526 0.843725 -1.09455 -1.88063 
363 0.0470086 0.900571 0.0537101 0.533289 -3.50072 0.647223 -0.157564 -0.568669 
328 0.0968729 0.850496 0.0506401 0.541861 -3.50239 0.56284 -0.0339004 -0.1247 
365 0.099571 0.901006 0.00132006 0.144018 -3.51278 -0.408804 -0.233194 0.217075 
367 0.152688 0.898396 0.0505265 0.534703 -3.49513 -0.952713 0.116772 0.172943 
332 0.199454 0.851209 0.0473181 0.499858 -3.4994 0.26667 -0.789376 0.419458 
369 0.200976 0.897506 0.00097766 0.259242 -3.49578 0.0130136 0.599681 -0.343739 
371 0.247411 0.897729 0.0528208 0.418757 -3.4995 0.562693 0.367164 -0.411242 
330 0.253146 0.848997 0.000128306 0.321414 -3.51308 -0.225215 -0.0196782 0.0671887 
336 0.297654 0.84688 0.0489568 1.06768 -3.49051 1.13277 1.35302 0.629991 
334 0.352483 0.854818 0.00125479 0.62331 -3.51 0.00836101 -0.599007 -0.222988 
340 0.402749 0.851286 0.0498489 0.149276 -3.52038 0.172585 0.0700719 0.252532 
375 0.351146 0.902525 0.0499163 0.328658 -3.50431 -0.276122 -0.662605 0.0753826 
377 0.403861 0.900097 0.00251282 0.659868 -3.48658 -0.691643 0.957932 -0.957059 
379 0.452794 0.901044 0.0538059 0.666565 -3.50287 -0.0853454 0.176461 -0.610438 
344 0.498739 0.85223 0.0502346 0.286574 -3.52028 0.335034 -0.0663956 -0.189576 
383 0.549401 0.899636 0.0487898 0.260653 -3.52639 0.170934 0.108926 0.190113 
348 0.596922 0.849703 0.0525447 0.7443 -3.49285 0.993917 0.405117 -0.549028 
385 0.600736 0.903829 0.00121247 0.681054 -3.51031 0.031764 -0.395967 -0.0761355 
387 0.648205 0.901984 0.0520369 0.528903 -3.50407 0.0701865 -0.227324 -0.769687 
352 0.700014 0.85396 0.0502721 0.15807 -3.52076 -0.309891 -0.123187 0.131288 
350 0.746425 0.855454 0.000187082 0.955932 -3.48006 0.9983 -1.47201 -0.262558 
356 0.797378 0.853921 0.0498791 0.352538 -3.49076 0.801686 -0.304955 -0.556538 
391 0.750451 0.903113 0.050574 0.37847 -3.51178 -0.642026 -0.323428 -0.179364 
360 0.898313 0.848652 0.0499589 0.370017 -3.51018 -0.186469 0.629365 0.27086 
395 0.850517 0.90333 0.0494773 0.381001 -3.52321 -0.330139 -0.342509 -0.368302 
397 0.899935 0.900386 0.000981796 0.213572 -3.52678 -0.267755 0.2502 0.0157185 
324 0.998641 0.84802 0.0490909 0.351229 -3.5068 0.254067 0.478166 0.492298 
361 0.997829 0.901362 0.00169531 0.15448 -3.51374 0.218851 -0.238732 0.163585 
358 0.944399 0.848061 0.000410545 0.928545 -3.49408 1.3065 0.407993 0.0970306 
399 0.948597 0.899091 0.0509525 0.132744 -3.52595 0.165222 0.158867 0.0420882 
362 0.0499178 0.9506 0.00353232 0.292888 -3.5226 -0.281388 -0.223329 -0.374797 
368 0.101587 0.951438 0.0501452 0.240428 -3.50847 -0.156443 -0.454758 0.230962 
9 0.204609 0.998131 0.00304508 1.04838 -3.48301 -1.05287 0.120568 -0.490316 
372 0.197231 0.948045 0.0515309 0.292878 -3.50716 0.362696 0.173452 -0.27208 
370 0.248127 0.949152 0.00438332 0.511746 -3.5104 0.394056 -0.231266 -0.348373 
13 0.299656 0.998612 0.000826339 0.177994 -3.51198 -0.168505 0.208212 0.0363294 
376 0.297198 0.947192 0.0516553 0.66057 -3.51664 0.167295 0.450285 -0.182628 
374 0.348663 0.950564 0.00132597 0.344539 -3.49254 1.0982 -0.391921 -0.603623 
380 0.401731 0.949443 0.0464356 0.555393 -3.51133 0.297603 0.55677 0.817573 
384 0.500848 0.948372 0.0506209 0.552654 -3.50928 -0.399602 0.803436 -0.344111 
27 0.650952 0.998965 0.0490325 0.236813 -3.51054 -0.0989255 0.57129 -0.166745 
388 0.598631 0.952601 0.0499436 0.218821 -3.5 -0.114857 -0.379312 -0.503055 
392 0.699239 0.948089 0.0498092 0.510319 -3.51178 0.176207 0.495566 -0.422674 
396 0.799101 0.949024 0.0449502 0.614659 -3.4919 -0.421968 0.411006 0.638752 
35 0.844972 0.997415 0.0487862 0.834813 -3.50861 0.549415 0.598241 -0.0337018 
37 0.899163 0.998686 0.000455833 0.324811 -3.50642 -0.193363 0.405453 -0.417579 
400 0.90006 0.950833 0.0510349 0.27263 -3.51877 -0.333579 -0.101625 -0.189146 
364 0.999546 0.950854 0.0515903 0.123565 -3.52739 -0.178806 0.138033 -0.0981751 
398 0.949535 0.950638 0.00188007 0.134021 -3.52066 -0.0442563 0.211437 -0.0252915 
402 0.0486431 0.0523705 0.0985098 0.400906 -3.50134 0.2378 -0.278331 0.25089 
403 0.0514454 0.00255913 0.148401 0.333284 -3.50124 -0.48621 -0.331433 -0.0675875 
405 0.101661 0.000957592 0.0980786 0.22071 -3.50628 -0.0946723 0.0651138 0.242099 
406 0.1485 0.0537718 0.0999039 1.14674 -3.49871 0.251678 -0.648368 -0.342048 
408 0.102344 0.0451602 0.1491 1.46115 -3.47788 -0.670087 1.58915 -0.125709 
412 0.200267 0.0452943 0.14975 0.519937 -3.4611 0.342123 0.480799 1.25978 
410 0.252285 0.0491719 0.09958 0.331923 -3.51159 -0.248746 -0.0789106 0.373456 
411 0.253372 0.00183066 0.150953 0.556809 -3.50943 -0.230969 -0.766398 -0.428055 
416 0.299373 0.0493566 0.151173 0.390078 -3.51413 0.568412 0.27007 0.0648073 
414 0.353311 0.0498247 0.105798 1.42654 -3.50073 -0.98981 -0.115529 -1.13955 
420 0.40034 0.0493808 0.152875 0.251315 -3.48964 0.0775042 -0.00356738 -0.498613 
418 0.447517 0.0512683 0.0996852 0.223024 -3.52136 -0.0271201 0.113396 0.130339 
419 0.448532 0.00258543 0.151409 0.351492 -3.51338 0.122206 -0.58432 -0.160827 
421 0.497354 0.00257717 0.0994787 0.391187 -3.50406 0.552112 -0.309819 0.323291 
424 0.498394 0.0518073 0.149004 0.148267 -3.51706 0.188576 -0.19698 0.0450568 
422 0.550006 0.0507875 0.0998513 0.152359 -3.51209 0.438156 -0.0519964 0.238852 
426 0.648733 0.0487714 0.101061 0.451289 -3.52001 0.176721 0.294364 -0.321105 
427 0.648479 0.00125954 0.149139 0.215619 -3.51325 0.278828 -0.18949 0.319707 
428 0.601126 0.0513495 0.14998 0.163324 -3.50838 -0.200969 0.193512 -0.104085 
432 0.701117 0.0527481 0.147963 0.565968 -3.49257 -0.713942 -0.886069 0.309769 
430 0.749509 0.0485154 0.0957559 0.5211 -3.51398 0.180822 0.363347 0.414057 
431 0.748689 0.00139402 0.151548 0.296122 -3.49704 -0.0664891 -0.487719 -0.567794 
436 0.797552 0.0465789 0.147233 0.451635 -3.4981 0.410782 0.70204 0.280087 
434 0.849092 0.0506161 0.0937533 0.921518 -3.48335 -0.432134 -0.397335 1.15609 
437 0.897647 0.0026123 0.0979061 0.366932 -3.50351 0.201426 -0.328573 0.377554 
440 0.897609 0.0490237 0.151636 0.620623 -3.49145 -0.121451 -0.0223523 -1.12094 
401 0.996377 0.00167453 0.101247 0.499861 -3.5147 0.845238 0.555249 -0.519903 
404 0.995481 0.0523238 0.151314 0.806461 -3.50773 0.704301 -0.531791 -0.658493 
438 0.948583 0.0543343 0.0981951 0.693983 -3.50092 -0.36267 -0.952407 0.225856 
442 0.0501394 0.148728 0.0995597 0.208639 -3.51389 0.035532 0.32413 -0.467893 
443 0.0492995 0.0991024 0.149952 0.313141 -3.49525 0.448604 0.0351269 -0.466615 
444 0.000880009 0.148581 0.144455 0.855786 -3.50675 -0.212609 0.148795 0.851262 
445 0.100795 0.102423 0.101681 0.851342 -3.47891 -0.431066 -1.13465 -0.397899 
446 0.150413 0.145736 0.100749 0.434308 -3.4598 0.622028 0.993599 -0.7624 
447 0.151196 0.0950083 0.152731 0.792832 -3.50338 -0.502765 1.27179 -0.294952 
448 0.100944 0.148194 0.147291 0.525963 -3.47867 -0.129628 0.704425 0.889604 
449 0.201344 0.0960421 0.101351 0.374708 -3.51226 -0.391023 0.757502 -0.210445 
452 0.1981 0.147143 0.150255 0.191389 -3.50962 0.0921517 0.283377 0.217795 
451 0.247765 0.0967704 0.150635 0.329459 -3.51596 0.331501 0.228441 0.384112 
450 0.250457 0.149139 0.100485 0.187197 -3.52662 -0.314813 0.0812235 0.137147 
453 0.299603 0.100382 0.101169 0.119002 -3.52087 0.0100649 -0.200484 -0.132988 
456 0.297578 0.149411 0.153411 0.438187 -3.49951 -0.0838023 -0.484372 -0.682899 
454 0.347744 0.153478 0.103677 0.548127 -3.49941 -0.43594 -0.632413 -0.411568 
455 0.349777 0.10024 0.148733 0.477878 -3.51292 -0.0551351 0.103201 0.550834 
457 0.399286 0.101135 0.099197 0.330176 -3.50454 -0.138164 -0.394007 0.542543 
460 0.396181 0.151575 0.149369 0.468996 -3.50677 0.55119 -0.698286 0.268806 
458 0.447333 0.146842 0.0996427 0.658199 -3.47219 0.847989 1.48648 0.0773836 
459 0.449137 0.100938 0.150364 0.148029 -3.52553 -0.0971816 -0.0923789 -0.176971 
464 0.496736 0.151739 0.152734 0.523669 -3.51654 0.473759 -0.0389755 -0.660306 
461 0.501399 0.103889 0.099102 0.635608 -3.51674 -0.11798 -0.323794 0.400408 
462 0.550758 0.153364 0.102412 0.44407 -3.51618 -0.375081 -0.15306 -0.222203 
463 0.548955 0.100368 0.149874 0.159149 -3.5231 0.215343 0.00825777 -0.0109592 
465 0.602007 0.10401 0.100659 0.449768 -3.49101 -0.411879 -0.848509 -0.31869 
466 0.649743 0.150833 0.104218 0.613844 -3.50036 0.399452 0.492065 -0.551985 
467 0.651062 0.101687 0.149442 0.239458 -3.50389 -0.11623 -0.504193 0.510402 
468 0.598922 0.147863 0.149518 0.676616 -3.50043 0.0741933 0.805475 0.815352 
469 0.698274 0.100796 0.0972775 0.340307 -3.50426 0.0704007 -0.0691368 0.529108 
472 0.702395 0.151893 0.152026 0.621787 -3.51648 -0.39421 -0.14622 -0.579832 
471 0.746488 0.0983854 0.147543 0.562088 -3.49472 0.840953 0.602117 -0.134884 
470 0.751184 0.151843 0.0995532 0.221276 -3.51275 -0.279754 -0.249036 -0.322476 
473 0.801772 0.0992654 0.0991484 0.519694 -3.50098 -0.870462 0.0416744 -0.27351 
476 0.797205 0.154079 0.148152 0.534097 -3.50067 0.540024 -0.730142 0.0189678 
474 0.84711 0.151049 0.100034 0.456463 -3.5222 0.52567 0.0471475 -0.18065 
475 0.847433 0.0990557 0.146526 0.339357 -3.49695 0.197451 0.11754 0.517061 
477 0.897413 0.100229 0.0975166 0.199033 -3.5145 0.134807 0.100896 0.483138 
480 0.898967 0.149629 0.150708 0.211951 -3.51332 -0.111888 0.188316 -0.113383 
441 0.99743 0.100273 0.0973757 0.218823 -3.51709 0.306717 -0.0763987 0.0275651 
478 0.946629 0.149952 0.0979139 0.332798 -3.51745 0.511448 -0.00980801 0.119552 
479 0.948273 0.100329 0.147491 0.154805 -3.52072 0.000224588 0.200345 0.282849 
483 0.0489219 0.200117 0.147559 0.275588 -3.49806 0.74415 -0.583227 -0.0397464 
484 0.000464878 0.248719 0.15255 0.532351 -3.48887 0.00451354 0.189278 -0.881198 
485 0.101763 0.197775 0.0948741 0.782745 -3.50237 -0.426855 0.30607 1.02814 
487 0.149721 0.202705 0.152733 0.901779 -3.48647 -0.064468 -0.930675 -0.765516 
488 0.100442 0.248919 0.150808 0.353808 -3.50072 -0.0880932 0.344808 -0.515349 