ITEM: TIMESTEP
750
ITEM: NUMBER OF ATOMS
4000
ITEM: BOX BOUNDS pp pp pp
1.2631528841062509e+00 3.4836847115893775e+01
-5.6745018147783455e-01 3.6667450181477975e+01
-5.7303738593014586e-01 3.6673037385930158e+01
ITEM: ATOMS id xs ys zs c_csym c_peratom fx fy fz 
3 0.0469133 0.996282 0.050711 0.980053 -3.43265 -0.304279 1.74911 -1.40871 
5 0.099619 1.00038 0.000844134 0.225444 -3.49063 -0.543633 0.184302 -0.555451 
7 0.149362 0.000373679 0.0486868 0.193136 -3.50761 0.0915972 0.289139 0.519943 
8 0.0969167 0.0533822 0.0477131 0.569416 -3.48824 0.271874 -1.12072 0.711526 
12 0.20102 0.0494228 0.0464404 0.565729 -3.47726 -0.351819 0.0666558 1.76557 
11 0.251264 -0.00172344 0.0507675 0.216463 -3.52241 -0.161203 0.104472 -0.157846 
10 0.253584 0.048047 1.00099 0.613377 -3.49419 -1.27057 0.259208 -0.730948 
16 0.299561 0.0490953 0.0492438 0.184016 -3.48531 0.369182 -0.730055 -0.208708 
14 0.350282 0.0479106 1.00064 0.0726946 -3.51387 -0.208405 0.104424 -0.123164 
15 0.349192 1.00128 0.0536806 0.667683 -3.48848 0.789132 -1.04759 -0.563216 
20 0.39969 0.0492678 0.0491362 0.291869 -3.4888 0.215355 -0.1731 0.0775897 
18 0.449443 0.0512089 -0.000278501 0.319739 -3.46809 -1.47262 -0.221793 0.95484 
19 0.449825 0.00107481 0.050488 0.272426 -3.51047 -0.245054 0.0549 0.20498 
24 0.502255 0.047 0.0501154 0.617103 -3.4851 -0.935945 0.458944 0.473117 
22 0.547036 0.0468035 1.00103 0.423816 -3.47176 0.471013 0.303239 -0.586459 
23 0.549929 0.996529 0.0526466 0.480129 -3.4978 0.310713 0.771236 -0.909032 
28 0.60083 0.0499514 0.0495502 0.254502 -3.51704 -0.227814 -0.331599 0.0558362 
32 0.698713 0.0508057 0.0500145 0.181137 -3.48943 0.148385 0.386453 -0.49055 
31 0.749231 1.00282 0.0509601 0.305108 -3.50872 -0.170434 -0.130012 -0.348516 
36 0.797216 0.0518608 0.0491403 0.391254 -3.50403 0.263366 0.5605 1.01272 
40 0.896524 0.0504936 0.0493256 0.224209 -3.50546 0.39535 -0.409829 0.0292164 
4 -0.000363455 0.0508708 0.0485512 0.22919 -3.51634 -0.304205 0.31103 -0.00135121 
39 0.947381 -0.000622131 0.0485537 0.105395 -3.51937 -0.0754709 0.0338612 0.416998 
43 0.050265 0.10181 0.04653 0.303532 -3.48371 0.105888 -0.351465 0.0255903 
44 1.00473 0.149636 0.0490633 0.854064 -3.48302 -1.07641 0.557842 -0.161283 
45 0.0993981 0.104175 0.997746 0.324871 -3.51547 -0.0199438 -0.681155 -0.139401 
47 0.148531 0.100994 0.047921 0.327091 -3.49198 -0.301511 -0.439531 0.737948 
48 0.102378 0.153811 0.0461183 0.714467 -3.44388 -0.0588881 -0.549716 0.623991 
49 0.200923 0.0976269 1.00175 0.611823 -3.50819 0.00973494 0.45003 -0.622745 
52 0.196244 0.149309 0.0499773 0.510864 -3.50878 0.301418 -0.000120465 0.207153 
51 0.252827 0.0989965 0.0503889 0.343837 -3.50923 -0.298673 0.430633 -0.199008 
50 0.246519 0.150848 1.00142 0.473868 -3.50263 0.502308 -0.240701 0.0109829 
53 0.298551 0.102027 1.00112 0.593652 -3.49989 0.959906 -0.843971 -0.557986 
56 0.301158 0.15054 0.0513984 0.131854 -3.49851 0.317047 0.0927194 -0.328719 
55 0.352125 0.0990235 0.0496573 0.139607 -3.51743 -0.269767 -0.289925 0.249075 
57 0.401439 0.101134 0.000381316 0.297872 -3.49638 -0.404307 -1.00442 -0.741917 
60 0.401344 0.149301 0.0509729 0.16826 -3.49237 -0.0185201 0.64042 0.800251 
58 0.446889 0.151063 0.999409 0.407015 -3.48738 0.542899 -0.661687 -0.0779037 
59 0.446742 0.0999833 0.0512429 0.409245 -3.47072 0.367029 -1.15355 -1.03594 
63 0.550071 0.0971518 0.0498705 0.306804 -3.50057 -0.1312 0.617877 -0.015677 
64 0.499747 0.149053 0.0499799 0.178412 -3.52299 -0.0727563 0.130083 -0.0798603 
66 0.646934 0.149608 0.997824 0.3553 -3.46148 0.206705 0.181112 1.21567 
67 0.650705 0.102952 0.0507085 0.398605 -3.51479 -0.415367 0.079465 -0.331427 
68 0.598798 0.153119 0.0541252 0.926293 -3.46822 0.394415 -0.852723 -0.548179 
72 0.702483 0.151855 0.0487409 0.662494 -3.4905 -1.28545 0.18335 0.552629 
71 0.748456 0.103457 0.0534255 0.459455 -3.50641 0.470375 -0.432331 -0.233728 
76 0.798663 0.153608 0.0521585 0.531865 -3.46619 -0.620719 -1.57064 -0.130969 
74 0.847456 0.152708 1.0001 0.457468 -3.47726 0.756811 -1.17888 -0.0441509 
75 0.84632 0.101526 0.0503195 0.299864 -3.52225 0.962825 -0.119201 -0.139927 
80 0.898725 0.149747 0.0486095 0.284023 -3.50813 -0.461666 -0.217856 0.380252 
79 0.947869 0.0993534 0.0532672 0.630929 -3.48898 0.603218 0.597446 -1.40907 
83 0.0529996 0.203496 0.0469656 0.635926 -3.48276 0.00919475 -1.09021 0.487188 
87 0.148733 0.198786 0.0467979 0.426693 -3.38048 0.406903 0.570926 1.13009 
91 0.250833 0.199373 0.0523287 0.270852 -3.50695 -0.260279 0.0309694 -0.425507 
92 0.199667 0.249783 0.0482016 0.349896 -3.51127 -0.233801 -0.196418 0.873853 
96 0.297373 0.250943 0.0507825 0.263054 -3.50455 0.541526 -0.109017 -0.461591 
95 0.353062 0.201844 0.0520653 0.376913 -3.50452 -0.396221 0.0240561 -0.180487 
94 0.348203 0.251134 0.000109009 0.169986 -3.52398 0.158686 0.113413 0.51356 
100 0.401396 0.250941 0.050916 0.101575 -3.51507 -0.273519 0.297693 -0.180936 
99 0.449167 0.200631 0.0475134 0.354154 -3.52205 0.228045 -0.163737 0.53125 
98 0.450039 0.250744 1.00306 0.371156 -3.51023 0.0149777 -0.168284 -0.652444 
103 0.551175 0.201209 0.0482298 0.480547 -3.44691 -0.624107 0.0687976 1.27553 
102 0.55184 0.250194 0.00131957 0.137073 -3.51365 -0.0455966 0.110208 -0.209144 
107 0.648453 0.203681 0.0493483 0.664491 -3.43289 0.632702 -2.12654 0.38734 
108 0.602636 0.250754 0.0511287 0.36873 -3.49718 -0.835791 0.0837671 -0.0737739 
109 0.69769 0.196923 -0.00128207 0.388478 -3.48966 0.192949 0.56464 -0.124149 
111 0.748387 0.199987 0.0495057 0.20959 -3.50584 -0.216597 0.468015 0.0481326 
115 0.850745 0.198401 0.0518319 0.421418 -3.48276 0.153359 1.12947 -0.051739 
120 0.897621 0.250627 0.0479023 0.317459 -3.50768 -0.29693 -0.0520062 1.15603 
119 0.946559 0.202066 0.0504541 0.557419 -3.47108 0.979893 -1.17189 -0.260162 
84 1.00018 0.246031 0.0497585 0.737118 -3.48703 -0.430662 1.50256 -0.230467 
123 0.0506029 0.301073 0.0492428 0.239478 -3.50913 0.0670254 -0.547971 -0.214939 
88 0.103005 0.248169 0.0493044 0.346197 -3.47044 -0.221497 0.999573 -0.453584 
125 0.103643 0.300072 -0.00120289 0.377943 -3.49666 -0.655802 -0.846913 0.316525 
127 0.148658 0.299381 0.0511948 0.25528 -3.49961 0.494661 0.174315 0.286051 
129 0.197647 0.297071 0.00208289 0.6599 -3.516 0.240933 0.0256764 -0.709799 
131 0.249776 0.301808 0.0491819 0.314737 -3.48743 -0.0882344 -0.507846 0.803809 
135 0.348785 0.30053 0.0505838 0.178416 -3.52569 0.236911 0.149846 -0.261158 
137 0.402456 0.301265 0.00056823 0.344874 -3.52169 -0.615146 -0.436619 0.0322991 
139 0.451176 0.302063 0.0505459 0.216878 -3.52596 0.432816 0.0160172 -0.00353878 
104 0.499633 0.249874 0.0497885 0.186861 -3.51452 0.3316 0.125646 0.229421 
143 0.551302 0.302732 0.0504756 0.263741 -3.49723 -0.530397 -0.205073 0.027394 
106 0.648978 0.249219 0.999826 0.0830341 -3.50346 0.101181 -0.429135 -0.38568 
147 0.648831 0.300749 0.0494933 0.141051 -3.50183 0.177162 -0.126782 -0.326807 
112 0.695721 0.251465 0.0508628 0.409802 -3.47292 0.532512 -0.0611668 -0.199019 
149 0.699832 0.299422 -0.00244439 0.386776 -3.52355 -0.529 0.106685 0.626312 
110 0.749621 0.248692 0.001905 0.232161 -3.51198 -0.678784 -0.0328018 -0.332252 
116 0.80017 0.24909 0.0529367 0.375907 -3.49284 -0.334515 -0.414094 -0.764641 
151 0.744266 0.299628 0.0506391 0.67717 -3.4921 0.728785 -0.127666 0.0190379 
155 0.845377 0.29995 0.0502873 0.293336 -3.50741 0.509387 -0.598972 0.0413795 
159 0.95028 0.297507 0.0473845 0.392634 -3.50169 -0.218071 0.448006 0.781172 
122 0.0491015 0.350656 -0.00392234 0.577394 -3.51817 0.601966 -0.476664 0.75607 
163 0.0507272 0.3991 0.0474394 0.141732 -3.51689 -0.337794 -0.144771 0.35582 
128 0.100753 0.349762 0.0483073 0.0907551 -3.51313 0.212803 -0.202985 0.355783 
167 0.153502 0.399435 0.0479268 0.360108 -3.51439 -0.162938 -0.0849565 -0.083616 
132 0.19877 0.348405 0.0496113 0.238565 -3.51991 0.18467 0.140854 0.33549 
136 0.300887 0.355631 0.0462824 1.65186 -3.48842 -0.407097 -1.23014 0.576217 
171 0.247717 0.399929 0.0483682 0.436666 -3.48915 0.0509573 0.153779 0.674342 
134 0.35011 0.35055 0.999156 0.118099 -3.4815 -0.50127 -0.187081 0.297897 
140 0.398734 0.350425 0.0473922 0.359896 -3.513 0.227549 0.03714 0.878249 
175 0.351349 0.403208 0.0477598 0.997434 -3.46921 -0.684161 -1.17176 1.18949 
177 0.400283 0.39723 0.99871 0.265094 -3.49901 0.35811 0.818947 0.545962 
179 0.450547 0.398741 0.0483965 0.266679 -3.50388 -0.366636 0.185309 0.578215 
144 0.501687 0.35388 0.0521022 0.649523 -3.48178 0.105631 -0.7783 0.314534 
142 0.546603 0.350844 0.00122068 0.713971 -3.49523 0.0662383 -0.062563 -0.700044 
181 0.497163 0.397202 -0.0012485 0.687168 -3.46992 0.877558 1.4685 -0.0368471 
183 0.551071 0.400306 0.0496651 0.295756 -3.51312 0.119285 0.434468 0.117103 
146 0.652591 0.351001 -0.00152103 0.355101 -3.51785 -0.16348 -0.444599 0.096403 
148 0.599956 0.349557 0.0453762 0.562006 -3.51192 0.140975 0.562422 0.548441 
185 0.599908 0.397948 -0.00305169 0.459334 -3.48798 0.209824 0.284267 0.241654 
187 0.65201 0.401724 0.0474314 0.297214 -3.51753 -0.687507 -0.684813 0.623798 
152 0.697391 0.3477 0.0511226 0.7476 -3.48262 0.768989 0.559107 -1.42394 
189 0.702267 0.39979 0.000972629 0.401398 -3.48661 -0.253571 0.618417 -0.0968125 
150 0.746752 0.350475 0.000303418 0.293399 -3.48674 0.0883385 -0.504915 -0.810664 
191 0.750615 0.401822 0.0477262 0.33475 -3.50169 -0.280794 -0.209162 0.174846 
156 0.800725 0.349625 0.048846 0.322257 -3.46992 -0.399898 0.014339 0.0341917 
193 0.794212 0.400653 -0.00411416 0.998949 -3.47342 1.79322 0.15456 1.05791 
154 0.846939 0.348216 0.00147395 0.314235 -3.49135 0.274769 0.526024 -0.802117 
160 0.899387 0.350968 0.049827 0.13784 -3.50848 0.0157932 -0.366847 -0.354289 
195 0.850037 0.402883 0.0488057 0.291567 -3.48787 -0.190868 -0.0156249 -0.901096 
197 0.899813 0.401704 0.998123 0.300643 -3.51023 -0.253608 -0.633469 -0.00570959 
124 -0.00154876 0.347312 0.0481318 0.368434 -3.47887 1.24501 0.879818 0.787887 
199 0.950006 0.398667 0.0504351 0.203368 -3.52077 -0.312761 0.413161 -0.569716 
162 0.0518388 0.450601 -0.0018122 0.137217 -3.5016 -0.287067 0.0488828 0.177552 
166 0.149992 0.44705 0.997002 0.511149 -3.48454 0.829055 0.712615 1.04544 
168 0.098797 0.44807 0.0461055 0.294751 -3.50548 0.0416973 0.343606 0.553044 
172 0.200092 0.452964 0.0499974 0.742281 -3.47588 0.0781092 -0.71508 0.13139 
211 0.251056 0.498112 0.0526976 0.586287 -3.46785 -0.012434 0.275457 -0.964684 
170 0.248881 0.448255 0.000471701 0.230564 -3.49239 -0.175219 0.0410079 -1.09831 
176 0.299308 0.4455 0.049338 0.568603 -3.47999 -0.289955 1.33947 0.103059 
174 0.348152 0.445783 -0.00323328 0.760315 -3.5096 -0.068221 0.78077 0.0492895 
180 0.399117 0.449815 0.0484664 0.195451 -3.47812 -0.0745471 -0.222561 -0.0999617 
178 0.446845 0.450051 1.00127 0.242352 -3.4965 0.496067 -0.0659371 -0.798909 
182 0.55102 0.447831 0.00196455 0.655012 -3.5078 -0.300011 0.367774 -0.637507 
184 0.496257 0.44928 0.0475917 0.570806 -3.49686 0.451442 0.069143 0.319094 
221 0.501589 0.503423 0.999666 0.56499 -3.50411 -0.586412 -0.854922 0.134897 
223 0.553143 0.499881 0.047215 0.667802 -3.49167 -0.855121 -0.0871374 0.54877 
186 0.649838 0.447797 -0.00113266 0.476776 -3.48749 0.784916 1.75554 0.153731 
188 0.604399 0.451968 0.0498168 0.517961 -3.48028 -0.829482 -0.172832 0.175872 
227 0.651828 0.500322 0.0493984 0.243061 -3.4804 0.144294 -0.409695 -0.789486 
192 0.700834 0.451515 0.0515457 0.280296 -3.51147 0.188391 -0.410067 -1.15025 
229 0.699465 0.500045 0.999166 0.221606 -3.5167 0.0726092 0.0581018 0.203092 
196 0.799525 0.450195 0.0464152 0.336954 -3.50387 0.0390899 0.17174 0.258445 
194 0.849984 0.453737 -0.00335731 0.548101 -3.50219 -0.133506 -1.69897 0.483505 
200 0.900894 0.450349 0.0461427 0.349747 -3.44251 -0.815142 1.3647 1.10619 
164 -0.00149584 0.44771 0.0467062 0.411111 -3.5101 0.0768245 0.68931 0.525668 
203 0.0466861 0.498795 0.0509206 0.367 -3.51103 0.664225 0.174587 -0.840053 
204 0.995344 0.548309 0.0493889 0.277254 -3.51444 0.64964 0.163494 -0.143285 
206 0.151348 0.552428 0.99986 0.283297 -3.50947 0.0690866 -0.580941 0.360813 
207 0.146675 0.498887 0.0493676 0.407005 -3.48924 0.947844 0.276739 -0.472238 
208 0.0991219 0.54988 0.0521493 0.209384 -3.51698 0.0398958 -0.119791 -0.774074 
212 0.200944 0.549601 0.050638 0.183055 -3.51653 -0.209212 -0.497447 0.0891191 
210 0.24889 0.547802 1.00186 0.508172 -3.4753 -0.46662 0.613146 -1.11351 
216 0.294791 0.551652 0.0502276 0.801652 -3.45178 0.792081 -1.32991 -1.16084 
214 0.348988 0.549998 0.998133 0.196479 -3.50093 -0.356265 0.178261 0.935586 
215 0.346364 0.497857 0.0472633 0.295309 -3.50048 0.491036 0.551371 0.14907 
217 0.397052 0.499797 1.00063 0.167967 -3.49038 0.521981 0.476451 -0.261514 
220 0.39754 0.551213 0.0505918 0.176647 -3.52164 0.0109574 -0.436684 -0.405649 
218 0.4505 0.553551 0.998474 0.512128 -3.50624 -0.463568 -0.701308 0.421857 
219 0.446296 0.500122 0.0484282 0.256318 -3.5071 0.449013 0.37779 0.417268 
224 0.500421 0.549058 0.0487974 0.148325 -3.52352 -0.0042427 -0.0513809 0.130706 
222 0.548887 0.551814 -0.000775998 0.269988 -3.47487 0.741124 -0.415456 -1.205 
228 0.599216 0.547965 0.0501533 0.32286 -3.4975 -0.158644 0.945386 0.267842 
232 0.702777 0.549153 0.0496128 0.41791 -3.48296 -0.461082 1.35668 -0.785298 
230 0.751473 0.549294 0.000386823 0.31498 -3.50109 0.726284 0.489276 -0.476433 
231 0.749434 0.501608 0.0533691 0.827824 -3.48885 -0.163244 -0.375046 -0.872733 
233 0.798127 0.500316 1.00093 0.616364 -3.46946 0.800708 0.256394 -1.48757 
236 0.803828 0.552426 0.0493369 0.540751 -3.5007 -0.183984 -0.159804 -0.495457 
235 0.849896 0.501394 0.0469411 0.156407 -3.51793 0.430541 -0.594314 0.00599623 
240 0.90084 0.550823 0.0468907 0.310649 -3.48973 -0.634086 -0.482969 -1.23102 
239 0.947317 0.498714 0.0473015 0.230298 -3.49274 0.274128 0.87617 -0.389156 
242 0.0497465 0.648038 0.00216254 0.251829 -3.51045 -0.334869 0.278417 0.240257 
243 0.0487625 0.599307 0.0512896 0.166156 -3.51882 0.0666463 -0.231591 -0.116296 
244 0.999184 0.648009 0.0531518 0.437117 -3.49592 0.305142 -0.451038 -1.23413 
246 0.149714 0.651782 -0.000861489 0.292067 -3.48765 0.212299 -0.489892 0.823527 
247 0.153563 0.598924 0.0528304 0.515465 -3.48537 -0.356219 0.684966 -1.21455 
248 0.100888 0.649406 0.0504526 0.153707 -3.49144 0.311133 0.903072 0.287611 
252 0.200489 0.652333 0.0510413 0.242427 -3.5163 -0.132243 -0.359625 -0.616373 
250 0.24915 0.649635 1.0011 0.292893 -3.51863 0.418499 0.717127 0.058195 
251 0.250908 0.600805 0.0487574 0.14996 -3.50613 -0.080999 0.329952 0.331853 
253 0.300016 0.599634 -0.000135631 0.22626 -3.50883 -0.51873 0.38479 -0.52571 
256 0.299908 0.651059 0.0502439 0.105016 -3.51056 0.63938 0.380808 0.130698 
254 0.350839 0.651445 -0.00213078 0.306114 -3.50352 -0.384275 0.235279 0.788255 
255 0.348197 0.600915 0.0504098 0.112259 -3.49973 -0.050516 -0.333734 -0.993686 
257 0.398853 0.600664 0.999894 0.118054 -3.52443 0.15746 0.0915163 0.337413 
260 0.398536 0.649729 0.0509438 0.164225 -3.49694 0.222209 0.720783 -0.711951 
258 0.450921 0.649691 1.0015 0.146025 -3.5096 -0.24905 0.421307 0.199142 
259 0.448818 0.599869 0.0517488 0.200085 -3.52559 0.0500364 -0.0934603 -0.291978 
261 0.499418 0.600116 1.00005 0.10929 -3.48669 0.333114 -0.144026 -0.456582 
262 0.54837 0.651867 0.000834178 0.259974 -3.50421 1.19201 -0.762839 -0.230691 
263 0.551525 0.60088 0.0504114 0.1988 -3.52028 -0.0776408 -0.190158 -0.294533 
264 0.499329 0.647574 0.0520515 0.345021 -3.49488 0.0994079 1.15771 -0.533497 
266 0.648581 0.649633 1.00005 0.282232 -3.50663 0.171958 -0.174855 0.686907 
267 0.650981 0.600636 0.051978 0.416757 -3.49377 -0.310806 -0.57363 -1.05591 
268 0.60052 0.651415 0.0502824 0.11907 -3.50934 0.146679 0.0180021 0.273604 
272 0.69972 0.6497 0.0481599 0.237606 -3.49917 0.504092 -0.352625 0.777222 
271 0.751405 0.603339 0.0478627 0.436262 -3.51216 -0.241757 -0.537728 0.132659 
276 0.79956 0.65083 0.0495393 0.0578207 -3.50987 0.173122 0.201735 0.160457 
275 0.850877 0.603048 0.0506005 0.300671 -3.4724 -0.0819075 -0.0226501 -0.648695 
280 0.902507 0.650745 0.0493997 0.34328 -3.49952 -0.511472 0.750743 0.189656 
278 0.954086 0.649924 0.999545 0.329152 -3.50044 -0.495258 0.324493 0.966944 
279 0.947429 0.59639 0.0490113 0.513683 -3.47368 0.889325 1.40145 1.3679 
283 0.0487682 0.697702 0.0519416 0.35084 -3.50445 0.28215 0.890178 -0.170824 
285 0.0954165 0.702119 0.000986823 0.86275 -3.47271 1.15749 -1.17677 0.285425 
287 0.154423 0.702059 0.0503904 0.686514 -3.42943 -1.29129 -0.640623 1.30797 
289 0.204263 0.703252 1.00091 0.640333 -3.49655 -0.84405 -1.08294 -0.1186 
291 0.252433 0.699761 0.0528621 0.509453 -3.45711 -0.108269 1.2921 -1.20324 
295 0.35037 0.702333 0.0525447 0.260903 -3.50495 -0.023385 -0.490746 -0.923062 
297 0.401167 0.703179 0.997716 0.511023 -3.489 -0.144121 -0.420923 1.21024 
299 0.451277 0.70218 0.0519396 0.277006 -3.51849 -0.249949 -0.5892 -0.312697 
301 0.500726 0.701723 1.00094 0.134455 -3.48613 -0.167685 -0.598491 1.08559 
303 0.55284 0.700752 0.0528007 0.320769 -3.51144 -1.0137 0.261883 -0.235748 
305 0.601841 0.701029 0.0011964 0.136363 -3.51083 -0.184543 -0.247072 0.247367 
307 0.652417 0.700143 0.0515955 0.358522 -3.49593 -1.27226 -0.224234 -0.262325 
308 0.600227 0.750495 0.0509623 0.0919325 -3.51999 -0.164186 0.104537 0.253227 
309 0.696793 0.699096 0.00197104 0.362594 -3.5052 0.731024 0.247492 -0.374218 
311 0.74879 0.699549 0.0499007 0.11241 -3.51649 0.0737637 0.0169706 0.351539 
313 0.795723 0.699909 -0.000511132 0.529692 -3.49576 0.465835 -0.0775813 0.458326 
315 0.848065 0.701118 0.0501428 0.229572 -3.51585 0.249689 -0.48427 0.0932537 
317 0.901604 0.699225 0.999643 0.117595 -3.49451 0.49807 0.199936 0.258412 
319 0.954616 0.700569 0.0517328 0.47746 -3.50032 -1.03034 -0.473416 -0.780436 
323 0.0495593 0.80035 0.0547074 0.303463 -3.51254 0.281436 0.149525 -0.435134 
288 0.0994505 0.749124 0.0513772 0.304562 -3.49537 -0.245755 0.849008 0.546548 
325 0.102197 0.799657 1.00238 0.299386 -3.50867 -0.947591 0.559422 0.0694615 
327 0.148212 0.803055 0.0513146 0.444223 -3.50372 0.673147 -0.831576 0.205787 
292 0.198871 0.749251 0.0508885 0.50838 -3.47659 1.27771 1.31258 -0.376989 
290 0.25013 0.753602 0.000268146 0.233873 -3.44841 0.543285 -1.53205 0.699333 
296 0.302035 0.753165 0.0508117 0.166248 -3.51626 -0.31403 -0.631773 0.0871075 
331 0.249295 0.802503 0.0493773 0.278081 -3.50533 0.320823 -0.45609 0.101735 
300 0.400472 0.75111 0.0522307 0.15395 -3.47727 -0.014114 0.640023 0.405955 
335 0.350923 0.803913 0.0507377 0.389495 -3.41797 -0.0722955 -1.90738 -0.283624 
298 0.45337 0.750334 0.000387085 0.386237 -3.50487 -0.509854 0.377128 0.118592 
339 0.450346 0.798934 0.0524453 0.277922 -3.4938 -0.345456 0.820838 -0.563707 
304 0.500021 0.750851 0.0518579 0.0738219 -3.51808 0.186962 -0.429589 0.151784 
302 0.551647 0.75025 1.00148 0.110899 -3.51703 -0.377849 0.324493 -0.279011 
341 0.499992 0.799498 -0.000232586 0.227762 -3.51839 0.251384 0.417855 0.304319 
343 0.547117 0.800549 0.0512322 0.311312 -3.51336 0.403987 0.0948897 0.10909 
306 0.647932 0.749583 0.00159556 0.127318 -3.51178 0.0710026 0.729756 0.308153 
345 0.598975 0.801288 1.00294 0.183998 -3.5147 -0.0545995 -0.00379425 -0.920572 
347 0.649383 0.80175 0.0513816 0.112614 -3.50794 -0.287757 0.248072 -0.840069 
312 0.696193 0.750289 0.050254 0.251799 -3.50859 0.686336 0.305016 0.670874 
349 0.697002 0.80094 -6.7819e-05 0.175611 -3.50762 0.372106 0.0168651 -0.282608 
310 0.747208 0.748185 0.000932436 0.28336 -3.51885 0.128706 0.261625 0.0368409 
316 0.80088 0.75118 0.0510438 0.463341 -3.51011 -0.793621 -0.68367 -0.53885 
351 0.748345 0.799312 0.047449 0.348606 -3.51804 -0.135496 -0.395489 0.530376 
314 0.849786 0.744583 -7.12603e-05 0.989545 -3.47816 -0.285297 0.972919 -0.0782956 
320 0.901162 0.747436 0.0491457 0.287926 -3.52676 0.0155248 0.375843 0.211921 
355 0.849798 0.798603 0.0488154 0.167694 -3.49737 0.521159 -0.575947 0.176863 
357 0.897033 0.797092 0.999893 0.410082 -3.50974 0.126595 0.56703 -0.190595 
284 1.0016 0.749727 0.0521696 0.13301 -3.49773 -0.0788378 -0.338351 0.164514 
359 0.95005 0.801116 0.0511206 0.362651 -3.50339 -0.0979696 -0.788803 -0.506704 
363 0.0474355 0.901765 0.0484899 0.385399 -3.49395 0.0786706 0.0465949 0.171032 
328 0.0972447 0.850276 0.0538435 0.427111 -3.50023 -0.093137 -0.460847 -0.313948 
365 0.102011 0.900004 1.00303 0.580358 -3.49939 -0.736309 0.223645 -0.409043 
367 0.148223 0.902696 0.0511678 0.271823 -3.48388 0.317399 0.0414428 0.15694 
332 0.202256 0.850536 0.0491815 0.410518 -3.48818 -0.72999 0.522404 0.468134 
369 0.198952 0.902367 0.0016976 0.297202 -3.49182 0.112484 -0.758 -0.211416 
371 0.248977 0.902634 0.049449 0.351302 -3.48336 0.491154 -0.980721 0.52468 
330 0.251101 0.85031 1.00108 0.199596 -3.50656 0.00262781 0.277848 0.534093 
336 0.302838 0.848724 0.0503299 0.537615 -3.49292 -0.671658 0.715008 0.0212177 
334 0.349271 0.852581 0.998738 0.355045 -3.51742 -0.0519998 -0.656559 0.202325 
340 0.397845 0.847215 0.0510004 0.78667 -3.42639 1.11158 0.826748 0.853053 
375 0.349079 0.901872 0.0510384 0.328367 -3.52193 0.398479 -0.560517 0.331786 
377 0.401058 0.899074 1.00165 0.325559 -3.51333 -0.467624 0.63845 0.356815 
379 0.450687 0.900135 0.0515247 0.1315 -3.52086 -0.0654994 -0.104108 0.380762 
344 0.502186 0.849677 0.0506155 0.294347 -3.48994 -0.999246 1.45774 0.0695565 
383 0.550918 0.903978 0.0488325 0.596816 -3.50469 -0.960869 -0.826373 0.34937 
348 0.599554 0.852265 0.0501022 0.198338 -3.50868 0.0155462 -0.222431 0.0739917 
385 0.598406 0.902449 0.999487 0.34557 -3.47973 0.546383 0.358183 0.730138 
387 0.647861 0.899831 0.049769 0.328659 -3.51544 0.298282 0.130251 0.115389 
352 0.699968 0.84878 0.0496009 0.125447 -3.51206 0.0733984 0.0298232 0.0631222 
350 0.750943 0.846816 -0.00161068 0.355273 -3.51214 -0.204782 0.724974 0.106765 
356 0.802244 0.846192 0.0488283 0.458113 -3.51 -0.290679 0.577772 0.100299 
391 0.749395 0.895446 0.0511933 0.427332 -3.46782 0.989073 0.595588 -0.645601 
360 0.900422 0.848061 0.0501138 0.141586 -3.52266 -0.573006 0.244255 0.0680347 
395 0.849446 0.900008 0.0507469 0.227152 -3.52667 -0.133203 -0.481733 0.279347 
397 0.896046 0.898208 0.99894 0.3785 -3.5085 1.07543 0.469475 0.589268 
324 -0.000869807 0.849452 0.0493684 0.263642 -3.50967 -0.0174066 0.083988 0.478752 
361 0.995751 0.894924 0.000699379 0.907395 -3.49087 0.413409 1.3003 -0.211459 
358 0.9458 0.847576 0.999123 0.44144 -3.50033 0.255774 0.307363 0.704437 
399 0.948652 0.898266 0.0501904 0.10105 -3.48499 -0.692066 -0.176834 -0.764889 
362 0.046668 0.949389 -0.000746746 0.161677 -3.51748 -0.104417 0.0838836 0.02592 
368 0.096744 0.955745 0.0467599 1.37192 -3.4545 1.2482 -2.12644 0.996191 
9 0.19859 0.00222639 0.99891 0.395194 -3.50472 0.199697 -0.453201 -0.630093 
372 0.198012 0.949876 0.047145 0.468019 -3.48761 0.115464 0.697184 0.820805 
370 0.246356 0.949239 0.999753 0.283557 -3.48415 0.773408 0.106734 -0.52089 
13 0.299277 0.995322 -5.81418e-05 0.404943 -3.50282 0.286439 0.97125 0.530462 
376 0.298276 0.948298 0.0508801 0.221663 -3.49869 0.247246 0.21502 0.0480961 
374 0.349854 0.949063 1.00291 0.289993 -3.48502 -0.331809 -0.899677 -0.164174 
380 0.402265 0.950496 0.0526935 0.245583 -3.52254 -0.531276 -0.103025 0.0232472 
384 0.498647 0.950468 0.0528102 0.278462 -3.50823 0.0169917 -0.130607 -0.782789 
27 0.649368 0.997785 0.0531131 0.382496 -3.51648 0.0393032 0.343188 -0.494644 
388 0.598524 0.950046 0.0541 0.423285 -3.46109 0.792691 -0.538796 -1.10919 
392 0.701488 0.946112 0.0498535 0.511666 -3.46785 -0.248121 1.95532 0.523795 
396 0.799461 0.950405 0.0492033 0.260462 -3.4689 0.185425 -0.835589 0.226243 
35 0.849875 -5.49447e-05 0.0516587 0.174625 -3.51348 -0.140449 -0.187968 -0.268147 
37 0.898928 -0.00041348 1.00106 0.122787 -3.5196 -0.00350607 0.157385 -0.610679 
400 0.899711 0.948398 0.0483059 0.215657 -3.49565 -0.0618392 -0.513851 0.747119 
364 0.994449 0.94916 0.0478427 0.389421 -3.4936 1.24475 0.92514 0.244532 
398 0.951023 0.949708 -0.0015023 0.480007 -3.48655 -1.71596 -1.14385 0.0732464 
402 0.0459035 0.0506353 0.0973968 0.352866 -3.50069 0.187048 -0.339756 -0.564692 
403 0.0452314 0.00272235 0.147703 0.491046 -3.49022 0.947646 -1.04377 0.49801 
405 0.0981952 0.999078 0.100183 0.370013 -3.49806 -0.289364 0.707642 -0.355032 
406 0.147289 0.0490561 0.101451 0.421011 -3.48492 0.958684 0.372262 -0.483446 
408 0.0966467 0.0521211 0.148671 0.266834 -3.49151 0.298384 -0.9961 0.639169 
412 0.204325 0.0510149 0.153183 0.617795 -3.47787 -1.04868 -0.00310582 -1.1136 
410 0.253553 0.0504328 0.0982313 0.403366 -3.49176 -1.01127 -0.152094 0.799773 
411 0.249658 1.00152 0.153117 0.391765 -3.49166 1.06997 -1.13058 -0.6831 
416 0.301416 0.0511276 0.149822 0.189708 -3.50784 -0.53479 -1.012 -0.340039 
414 0.349372 0.0467245 0.098492 0.50386 -3.48906 0.617027 1.07554 0.820189 
420 0.402895 0.0470137 0.14905 0.619321 -3.46882 -1.23639 0.524256 1.75676 
418 0.449285 0.0457416 0.100007 0.501232 -3.49476 0.440857 1.20316 0.00611618 
419 0.451341 -0.000961288 0.153302 0.313625 -3.49639 -0.0690282 -0.0259898 -0.181013 
421 0.50071 -0.00253203 0.103343 0.427051 -3.50526 -0.568138 0.868586 -0.485443 
424 0.498872 0.0527439 0.148818 0.873256 -3.50068 0.421631 -1.07287 0.368799 
422 0.548808 0.0486919 0.099942 0.128039 -3.50401 -0.0068119 0.339327 0.451295 
426 0.649741 0.0503215 0.0981677 0.320687 -3.51787 0.0626783 0.00630571 0.531663 
427 0.649052 0.999908 0.149124 0.218392 -3.5148 0.144807 0.264293 -0.0127955 
428 0.596115 0.0499401 0.148905 0.479961 -3.49781 0.991289 -0.362749 1.0734 
432 0.699576 0.0501157 0.149109 0.174748 -3.51746 -0.321955 -0.0186938 0.152024 
430 0.750186 0.052735 0.101263 0.240594 -3.5253 0.0314949 -0.131209 -0.0277619 
431 0.749376 0.998807 0.148859 0.251687 -3.5178 0.0778376 0.132783 0.0108511 
436 0.802296 0.0493549 0.151639 0.329541 -3.51521 -0.77772 0.0796431 -0.286186 
434 0.849902 0.0483716 0.0990468 0.297242 -3.50277 -0.0260541 1.00272 0.776408 
437 0.899273 0.99964 0.099937 0.111932 -3.50796 0.186457 0.177951 -0.385408 
440 0.897639 0.0493437 0.151198 0.420276 -3.5133 0.116487 0.260616 -0.540484 
401 0.996611 0.00142357 0.0985379 0.16367 -3.5071 -0.133131 -0.964029 -0.0533007 
404 1.00146 0.0505734 0.147359 0.282363 -3.46502 0.100869 -0.525444 0.602722 
438 0.947234 0.0520015 0.0970783 0.375203 -3.49307 0.254746 -0.595347 0.383862 
442 0.0515422 0.149112 0.0964619 0.363315 -3.50005 -0.0672222 0.883973 0.650539 
443 0.0500176 0.0991978 0.146838 0.277133 -3.41962 -0.355938 1.20011 0.49355 
444 1.00242 0.149704 0.14772 0.24937 -3.49814 0.190402 0.591318 0.192751 
445 0.0969954 0.09986 0.102036 0.744572 -3.44464 0.551471 -0.458499 -1.41047 
446 0.146012 0.146715 0.0997726 1.10873 -3.47352 0.222522 0.258308 -0.0985599 
447 0.148905 0.101487 0.149427 0.257084 -3.5142 0.231173 -0.341069 0.383146 
448 0.0978811 0.151595 0.149818 0.289376 -3.5088 0.145868 -0.67084 0.346745 
449 0.20078 0.101418 0.100949 0.281854 -3.48453 -0.45901 -1.25509 -0.344894 
452 0.202594 0.152287 0.147711 0.683107 -3.50676 -0.387483 -0.738604 0.784741 
451 0.2504 0.101502 0.149448 0.160906 -3.51001 0.482566 -0.322209 0.0490415 
450 0.251037 0.150739 0.09543 0.965638 -3.48964 -0.211225 0.20346 1.28689 
453 0.300158 0.0982943 0.0996741 0.207409 -3.51314 0.640558 0.455853 0.102312 
456 0.299779 0.151096 0.148961 0.353239 -3.48181 0.996702 -0.129492 -0.252628 
454 0.351473 0.148833 0.100513 0.089101 -3.52211 -0.136509 0.259579 -0.186632 
455 0.352279 0.0994132 0.150907 0.300629 -3.48433 0.105293 -0.786431 -0.0799985 
457 0.400427 0.0968775 0.101182 0.205057 -3.50603 -0.112646 0.674809 -0.416137 
460 0.400811 0.148399 0.148287 0.277233 -3.47142 -0.300627 -0.17196 0.510941 
458 0.450027 0.150867 0.0999462 0.233374 -3.51305 -0.14596 0.0795158 0.478985 
459 0.449011 0.0980931 0.150514 0.167336 -3.46631 0.571127 -0.323921 -0.898296 
464 0.501596 0.147906 0.15022 0.405834 -3.49096 -0.796275 0.219646 -0.546611 
461 0.498524 0.098957 0.0963534 0.644333 -3.51289 -0.194194 0.144736 1.09174 
462 0.548261 0.149032 0.101534 0.269819 -3.42776 -0.36993 0.82091 -0.604254 
463 0.54904 0.0986738 0.150907 0.221962 -3.4945 0.244571 -0.0355033 -0.349233 
465 0.600019 0.0988463 0.0992483 0.247293 -3.52037 -0.403409 0.266639 -0.171101 
466 0.650391 0.150516 0.101644 0.345158 -3.46383 -0.0436031 0.729081 -1.28297 
467 0.644611 0.0993795 0.151296 0.520344 -3.49341 -0.0236958 -0.683693 0.17542 
468 0.596965 0.150871 0.144862 1.63154 -3.44928 0.902129 -0.373154 1.63813 
469 0.69632 0.101403 0.0983582 0.468822 -3.49136 0.417488 0.162033 1.17318 
472 0.697658 0.149912 0.151423 0.121022 -3.51972 0.131931 -0.392738 -0.108718 
471 0.74708 0.100497 0.150784 0.202905 -3.50788 0.438056 -0.15141 0.0905388 
470 0.747467 0.151222 0.101501 0.160967 -3.50962 0.0900714 -0.185836 -0.19003 
473 0.803592 0.101199 0.103532 1.05694 -3.46732 -2.76231 -0.70577 -1.8907 
476 0.795022 0.151877 0.151029 0.821132 -3.48348 1.53334 -0.97443 -0.00643244 
474 0.850146 0.150472 0.10017 0.288153 -3.45611 0.565626 0.278359 1.42288 
475 0.848076 0.0994456 0.15098 0.221569 -3.43344 1.11057 0.549032 -0.893162 
477 0.899121 0.0988596 0.0990016 0.222938 -3.4462 -0.423207 1.07824 1.3387 
480 0.896965 0.152292 0.153012 1.07612 -3.47711 0.602475 -0.930599 -1.13834 
441 0.00110508 0.100392 0.098991 0.157149 -3.50457 0.331044 -0.018558 -0.545439 
478 0.951445 0.149309 0.0986753 0.200674 -3.50208 -0.237754 0.373541 -0.165507 
479 0.951861 0.0999046 0.147511 0.178701 -3.50936 -0.651552 0.219773 -0.0859343 
483 0.0501966 0.198529 0.148794 0.207328 -3.49559 -0.194347 0.487238 -0.431097 
484 1.00066 0.248351 0.150625 0.214531 -3.5209 -0.0411434 0.360795 -0.455004 
485 0.102693 0.200066 0.100418 0.480162 -3.51873 -0.119334 -0.19722 -0.468952 
487 0.150598 0.198043 0.149024 0.375115 -3.49663 -0.554746 0.65896 0.980391 
488 0.099805 0.253091 0.147515 0.527401 -3.48729 0.0179665 -0.141414 1.043 
489 0.200015 0.199281 0.102035 0.381992 -3.48042 -0.211932 0.481245 -0.714284 
491 0.255661 0.198261 0.151207 0.887575 -3.4642 -1.89803 0.853287 -0.51167 
493 0.300603 0.203395 0.0995948 0.579589 -3.48869 1.23423 -1.4695 0.425999 
496 0.303037 0.250557 0.150438 0.161805 -3.51202 -0.0743659 -0.700139 0.360754 