ITEM: TIMESTEP
1750
ITEM: NUMBER OF ATOMS
4000
ITEM: BOX BOUNDS pp pp pp
3.0779471669055769e+00 3.3022052833094449e+01
-1.5817340916941554e+00 3.7681734091694196e+01
-1.8594022713061023e+00 3.7959402271306260e+01
ITEM: ATOMS id xs ys zs c_csym c_peratom fx fy fz 
4 -0.00223976 0.0514713 0.0354996 5.31166 -3.48361 0.283904 0.33197 -0.248105 
7 0.146309 1.0008 0.0263456 5.14373 -3.49105 -0.0394518 -0.218869 -0.359457 
8 0.100038 0.050475 0.0337948 0.195389 -3.49022 -0.186284 0.552621 -0.08915 
12 0.197754 0.048502 0.031232 4.98151 -3.48603 0.0356628 0.54557 0.355074 
9 0.194283 0.0032699 0.978084 5.36554 -3.46248 0.394572 -0.837741 -0.788824 
16 0.298626 0.0505551 0.031554 5.73925 -3.51415 -0.438604 0.298889 -0.0639965 
14 0.345801 0.049148 0.98143 5.44864 -3.49728 0.254868 0.12531 0.0217185 
20 0.399496 0.049163 0.0309068 0.258091 -3.5143 -0.259658 0.585531 -0.0252325 
24 0.497514 0.0525533 0.0315154 5.4216 -3.49774 0.420852 -0.497013 0.200242 
28 0.601525 0.0523447 0.033541 0.174185 -3.48019 0.42927 -0.280456 -0.236968 
32 0.705353 0.0514175 0.0350055 5.19385 -3.49898 -0.460047 0.310463 -0.126659 
36 0.803247 0.0511523 0.037833 0.223175 -3.49947 -0.177335 0.394978 -0.112913 
40 0.901257 0.0526838 0.0366155 0.104012 -3.50239 0.262866 0.100345 0.29416 
43 0.0483801 0.101134 0.0462963 5.42055 -3.49733 0.376091 -0.104013 -0.672489 
48 0.10144 0.149874 0.0515641 5.36042 -3.49359 -0.519586 0.377338 -0.154776 
47 0.148328 0.102121 0.0421891 0.21559 -3.49295 -0.0482582 -0.999949 0.305718 
52 0.19598 0.150713 0.0502095 5.29991 -3.49514 -0.168662 0.0800316 -0.676229 
51 0.246296 0.101654 0.0425594 5.33925 -3.49718 -0.0231471 -0.482339 -0.280928 
50 0.24456 0.148572 0.998223 4.88735 -3.49477 0.175462 0.84726 0.059211 
53 0.294187 0.102533 0.987732 5.44327 -3.49251 0.565356 -0.570413 0.441761 
56 0.296824 0.149035 0.0488608 5.65482 -3.504 0.0369768 0.0247785 0.147863 
55 0.347479 0.101384 0.0399789 0.110538 -3.49455 0.156801 -0.0197241 -0.320924 
54 0.347051 0.151358 0.998619 5.52381 -3.504 -0.0221758 -0.511962 -0.513189 
57 0.397132 0.0992969 0.987137 5.3944 -3.51078 -0.127052 0.281794 0.617169 
60 0.398834 0.152165 0.0461139 0.578311 -3.47924 -0.366399 -0.782835 1.17195 
58 0.446448 0.151827 -0.000224994 5.65169 -3.46556 0.447977 -0.648946 -0.637764 
59 0.446323 0.102724 0.0387438 5.28502 -3.50269 0.160835 -0.479204 0.182953 
61 0.498264 0.101349 0.990341 5.09355 -3.51014 0.352841 -0.0556088 0.00788228 
63 0.549499 0.101627 0.039206 5.28497 -3.50422 0.0723595 -0.41593 0.228907 
64 0.500826 0.148611 0.0480822 4.7738 -3.49939 -0.649463 0.393856 0.463405 
68 0.59459 0.151853 0.0485546 0.430645 -3.50024 0.720207 -0.0276923 0.672993 
62 0.55161 0.150752 0.99941 5.44342 -3.49895 -0.450014 0.0116486 -0.463319 
66 0.650536 0.152424 0.00132824 0.304164 -3.50742 -0.185349 -0.471397 0.0237504 
67 0.648153 0.101678 0.0421962 5.41853 -3.50502 0.346337 -0.0207854 0.501624 
72 0.694448 0.152503 0.0528257 0.493793 -3.50539 0.571091 -0.156967 -0.295876 
69 0.701352 0.10363 0.995473 0.417675 -3.48596 -0.28591 -0.627258 -0.279723 
71 0.750259 0.10352 0.0447027 5.2834 -3.47923 -0.412671 -0.55587 -0.0146415 
76 0.800554 0.151344 0.0521904 0.0942212 -3.49604 -0.0627019 0.533762 -0.028871 
75 0.851177 0.103763 0.0463687 5.45877 -3.51348 0.0679083 -0.437669 -0.0555019 
80 0.902997 0.150438 0.0518777 5.36197 -3.47241 -0.228037 1.23883 -0.0634566 
44 1.00095 0.151067 0.0531218 0.178943 -3.50566 0.284356 0.110095 -0.242373 
79 0.950456 0.104673 0.0475125 0.687645 -3.44983 0.702097 -0.763371 -0.949442 
83 0.0499823 0.204707 0.0589744 0.57518 -3.46115 -0.14866 -0.895027 0.518302 
87 0.146116 0.200519 0.0578173 0.380748 -3.49173 0.677724 0.264435 0.284385 
91 0.243514 0.196653 0.0573622 5.32292 -3.47797 1.14731 0.748636 -0.0426057 
89 0.195643 0.202969 0.00806284 5.01576 -3.47199 0.160466 -1.34849 0.187333 
95 0.346702 0.195865 0.0580925 5.13348 -3.48595 0.167859 1.2759 0.0690723 
93 0.298718 0.198934 0.008396 5.4748 -3.49258 -0.758788 -0.0363605 -0.153284 
100 0.396622 0.249867 0.0686759 0.21008 -3.50027 -0.150462 -0.535784 -0.450052 
99 0.446572 0.199905 0.0597378 5.32052 -3.49129 0.0425456 -0.166508 -0.133612 
98 0.446821 0.247119 0.0168531 0.149323 -3.51204 -0.193433 0.233208 0.0704306 
97 0.398404 0.198379 0.00583941 0.377091 -3.47297 -0.59605 1.06365 0.156632 
103 0.544693 0.201032 0.0601781 5.24319 -3.49849 0.530319 -0.568705 -0.111819 
102 0.547654 0.249086 0.0191206 0.192773 -3.51047 -0.0608451 -0.104082 -0.344792 
104 0.496439 0.247128 0.0673041 5.52891 -3.50531 -0.153824 0.903253 0.217496 
101 0.498154 0.19804 0.00838784 5.1097 -3.51152 0.072751 0.179866 0.0236917 
105 0.599566 0.201135 0.00908957 5.4065 -3.48686 -0.584244 -0.1556 0.373231 
107 0.646517 0.20214 0.0608423 5.49672 -3.48294 0.373965 -0.42272 -0.435581 
108 0.597894 0.246916 0.0683471 5.12001 -3.47838 -0.275689 1.50808 -0.393994 
109 0.701631 0.200273 0.0105475 5.22072 -3.5068 -0.55725 0.364207 0.0571072 
106 0.646104 0.250165 0.0178092 5.30692 -3.50331 0.603605 -0.129437 -0.0146017 
112 0.699703 0.250034 0.0674983 5.72451 -3.5088 -0.287115 -0.0591186 0.427719 
111 0.74864 0.201941 0.0590741 5.25757 -3.50159 0.225693 -0.196218 0.189268 
116 0.802628 0.25353 0.0651335 5.37627 -3.5018 -0.387495 -0.688248 0.442735 
115 0.852226 0.201967 0.0589238 5.64808 -3.51274 0.0255255 -0.353031 0.240732 
120 0.901774 0.249818 0.0677675 0.262207 -3.50945 0.329527 0.0924995 0.0963708 
119 0.953936 0.200784 0.0612301 5.38202 -3.49111 -0.271592 0.439826 -0.283635 
123 0.0524742 0.300923 0.0785956 0.250527 -3.49481 0.361944 0.208389 -0.290131 
88 0.100628 0.248754 0.0665448 5.03683 -3.49412 0.253975 1.1558 0.203861 
127 0.149616 0.300697 0.0769555 0.171029 -3.48256 0.266666 0.189399 -0.90348 
92 0.20068 0.249829 0.0680966 0.372577 -3.49262 -0.588449 -0.0074764 -0.156408 
129 0.19565 0.30002 0.0258852 5.0805 -3.48275 0.856164 -0.589031 -0.480863 
131 0.246837 0.300392 0.075158 0.217124 -3.51496 0.226347 0.0600163 -0.00814258 
90 0.245347 0.247869 0.0169281 0.267163 -3.49367 0.527668 0.624514 -0.191173 
96 0.296121 0.247533 0.0677414 0.183437 -3.508 0.024431 0.230277 -0.159924 
94 0.345217 0.248332 0.0170123 5.60957 -3.50032 0.251556 -0.000334202 -0.0518807 
135 0.345128 0.299198 0.0754745 5.33119 -3.49853 0.544459 -0.0309359 -0.0906175 
133 0.299974 0.299755 0.0260257 5.38479 -3.49808 -0.476821 -0.135946 -0.263204 
137 0.394225 0.296362 0.0257572 0.587664 -3.50876 0.608927 0.718533 -0.258069 
139 0.446648 0.300282 0.0731658 5.42823 -3.49259 0.114197 -0.639893 1.02813 
143 0.548036 0.298061 0.0784511 5.3666 -3.49719 -0.213217 0.257762 -0.554185 
141 0.495889 0.29824 0.0255783 5.90919 -3.49292 0.180637 -0.254817 0.325065 
147 0.647593 0.301181 0.0742527 5.55293 -3.48471 -0.186861 -0.107361 0.540877 
145 0.597297 0.299015 0.0250785 5.04834 -3.51531 -0.177357 -0.175911 0.580485 
151 0.751539 0.299113 0.0745771 4.94846 -3.50691 -0.411869 0.0780318 0.449657 
155 0.852297 0.299926 0.0742028 5.3823 -3.50903 -0.110137 0.530773 0.279999 
84 0.00106816 0.255572 0.0694923 4.84664 -3.49729 0.090703 -1.36052 0.150712 
159 0.949301 0.301218 0.0775818 5.24233 -3.50873 0.163125 0.167219 0.101945 
163 0.0516579 0.400626 0.0956835 5.20556 -3.47649 0.403503 -0.189073 -0.369254 
128 0.108097 0.35224 0.0832128 5.10926 -3.49139 -0.875892 -0.225383 0.887388 
167 0.153902 0.402237 0.0918087 4.5415 -3.47298 -0.507817 0.0680698 1.00294 
132 0.196696 0.350474 0.0843422 5.22382 -3.51641 0.770397 0.0847192 -0.0553702 
171 0.249082 0.401885 0.0910533 4.74938 -3.45307 0.182174 -0.5259 0.107975 
169 0.195921 0.401561 0.0424642 4.52238 -3.46523 0.629362 -0.121932 -0.627049 
130 0.249521 0.351516 0.0329041 0.334692 -3.48943 -0.210416 -0.198266 0.541672 
136 0.301039 0.347814 0.0841917 5.41717 -3.48053 -0.53249 0.994775 -0.605627 
134 0.350825 0.349647 0.0318145 5.20525 -3.49312 -0.587519 -0.125491 0.330573 
175 0.346421 0.401853 0.0890192 4.81796 -3.46309 0.483752 -0.214965 0.810592 
173 0.300712 0.401235 0.0407935 5.22202 -3.44964 -0.698108 -0.433701 0.123841 
140 0.397548 0.349265 0.0849727 0.358256 -3.48125 0.130285 0.496301 -0.883622 
177 0.393673 0.401429 0.0407412 4.65627 -3.46494 0.687442 -0.505333 0.296821 
179 0.446467 0.403657 0.0931078 5.92357 -3.42552 -0.210748 -0.742763 -0.0823476 
138 0.448643 0.348456 0.0332131 0.194316 -3.48336 -0.563473 0.169585 -0.0922602 
144 0.495367 0.348008 0.0846608 0.395839 -3.48203 0.620027 0.123437 -0.286057 
142 0.548639 0.348267 0.0334774 4.76483 -3.51682 -0.477312 -0.183256 0.119555 
181 0.496501 0.397965 0.0428613 4.54412 -3.48754 -0.0734708 0.0500575 -0.202974 
183 0.547587 0.398902 0.0903292 4.74913 -3.45104 -0.211374 0.807621 -0.0709483 
146 0.64742 0.34999 0.0312237 5.07299 -3.45243 0.0178071 -0.355461 1.10074 
148 0.593171 0.352794 0.0839126 5.33368 -3.46836 0.823956 -0.844449 -0.1481 
185 0.595149 0.39929 0.0391331 4.9529 -3.44379 -0.00368158 0.162125 0.592584 
187 0.646613 0.400992 0.0943622 5.23387 -3.48114 -0.0876005 0.0303074 -0.240954 
152 0.701724 0.350523 0.08485 5.64562 -3.48962 -0.537711 -0.0841477 -0.0737905 
191 0.747399 0.402802 0.0924267 4.54667 -3.46461 0.637119 -0.897109 0.127954 
156 0.801313 0.349933 0.0843129 5.12447 -3.48464 -0.142015 0.506844 -0.0591722 
160 0.902537 0.350996 0.0855633 4.945 -3.5125 -0.343784 0.0403917 -0.133266 
195 0.849344 0.403125 0.091283 1.25853 -3.45333 0.0655088 -0.477281 -0.404277 
124 0.00351496 0.35185 0.0877789 5.40173 -3.50152 -0.0214164 -0.24032 -0.453885 
199 0.953008 0.401751 0.0923855 5.00528 -3.47562 -0.0773196 0.154737 0.0991604 
161 0.0062181 0.40145 0.043594 4.56036 -3.4365 -0.738417 -0.463545 0.000934664 
168 0.0995732 0.45001 0.0832983 0.305302 -3.51379 0.387745 0.256211 0.210234 
203 0.0519594 0.500135 0.0746514 0.201587 -3.51031 0.0202197 0.09551 0.150042 
205 0.0996362 0.502272 0.024765 5.38772 -3.50789 0.153829 -0.429374 0.253097 
166 0.148047 0.451591 0.0319616 0.224665 -3.49046 0.458097 0.203886 -0.212504 
207 0.154281 0.497358 0.0752705 4.98637 -3.484 -0.938993 1.15749 -0.186373 
172 0.200248 0.450937 0.0819014 0.247818 -3.47134 0.9748 0.474062 0.383672 
170 0.247494 0.454099 0.0280107 5.30963 -3.46901 0.778202 -1.27687 0.604241 
209 0.203614 0.502492 0.025032 4.99582 -3.46058 -0.879846 -0.576361 -1.18662 
176 0.293813 0.451341 0.0814637 0.744792 -3.42372 1.0461 -0.101702 -0.429143 
174 0.351646 0.453658 0.0298444 4.81426 -3.46699 -0.538718 0.10608 0.828983 
215 0.350291 0.505579 0.070256 5.40146 -3.46146 -0.132862 -0.910296 0.567242 
213 0.301471 0.499629 0.0218711 5.35328 -3.50873 -0.119086 1.00261 0.240326 
180 0.392292 0.453943 0.0819291 4.90235 -3.49325 0.556333 -0.559164 0.18956 
178 0.445806 0.44751 0.0348186 4.95568 -3.46422 0.475588 -0.293452 -0.599865 
217 0.404766 0.502239 0.0247169 5.14272 -3.47917 -0.923549 -0.0243962 -0.180148 
219 0.44861 0.497516 0.0710547 5.33894 -3.46504 0.395426 0.46265 1.49796 
182 0.546543 0.449984 0.0323861 5.21302 -3.49487 0.323146 -0.386453 0.320114 
184 0.501112 0.450729 0.0826863 5.4994 -3.51819 -0.286432 -0.0606563 0.304362 
221 0.499694 0.496198 0.0273996 5.12248 -3.48264 -0.0776335 0.598813 -0.903305 
223 0.551908 0.500942 0.0745571 5.18111 -3.49765 -0.710889 -0.834336 0.023143 
186 0.649467 0.447135 0.0358392 5.36033 -3.49552 -0.00635947 0.449756 -0.219553 
188 0.597897 0.450448 0.0829714 0.188262 -3.50841 -0.0948205 -0.378665 -0.125032 
227 0.648776 0.499599 0.0753498 5.68993 -3.52095 -0.237205 0.209903 -0.317633 
192 0.696212 0.451881 0.0895188 4.73305 -3.45069 0.54052 -0.519912 -1.55959 
196 0.800164 0.451516 0.0861858 0.221011 -3.52298 -0.254874 0.0139785 -0.0159401 
200 0.898953 0.452466 0.0833824 0.362486 -3.48957 0.359155 -0.575755 0.243465 
235 0.850285 0.498594 0.075641 5.3528 -3.47829 -0.357561 1.19324 0.812141 
164 0.00284251 0.451776 0.0858873 5.04368 -3.52118 0.0667237 -0.0949274 -0.226195 
239 0.953721 0.501612 0.0733036 4.79991 -3.48424 -0.107678 0.469394 0.901972 
208 0.102253 0.549216 0.0681836 0.323228 -3.48678 0.11462 0.118584 -0.474911 
206 0.148233 0.549207 0.0156354 0.350815 -3.50824 0.469662 0.66134 0.363907 
212 0.197693 0.551401 0.0660857 5.35741 -3.4818 0.919008 0.639454 0.174007 
211 0.25232 0.501219 0.0721406 0.300652 -3.49306 -0.582619 0.821128 0.407426 
210 0.251634 0.552243 0.0145082 0.240549 -3.4984 -0.409964 -0.351011 0.00847263 
216 0.296414 0.553282 0.0636893 5.1196 -3.48843 0.823286 -0.650662 -0.3101 
214 0.354112 0.54971 0.0145392 5.1575 -3.48931 -0.110944 -0.393492 0.21733 
220 0.403883 0.551769 0.0693053 5.47743 -3.48583 -0.181738 -0.357098 -1.14027 
218 0.452296 0.548093 0.0136083 0.416101 -3.47109 0.208568 0.658926 0.924155 
224 0.502815 0.547533 0.067709 0.507972 -3.48562 -0.69338 0.226631 -0.309611 
222 0.550105 0.546284 0.0178967 5.03766 -3.48204 -0.732102 0.579848 -0.965698 
228 0.595294 0.550123 0.0666864 5.16713 -3.48712 0.846551 -0.762462 -0.348908 
232 0.699774 0.549144 0.0656423 0.39462 -3.49725 -0.347044 0.207304 0.253551 
225 0.595801 0.499143 0.0246879 4.74456 -3.48279 0.927638 0.145346 0.495782 
226 0.645828 0.549264 0.0189277 5.19445 -3.50302 0.0929032 0.140934 -0.0467254 
231 0.753286 0.50203 0.0786067 5.05658 -3.48761 -0.745156 -0.731459 -0.607124 
236 0.803437 0.552223 0.0648587 5.292 -3.47339 -0.56608 -0.72751 0.467141 
240 0.902588 0.549263 0.0675824 4.99113 -3.48552 -0.696889 0.576649 0.0145351 
204 0.00442706 0.554638 0.0670924 5.11408 -3.48678 -0.480699 -1.29705 -0.545872 
243 0.0544223 0.599925 0.0584562 5.19668 -3.49873 -0.0423013 0.41908 0.0487534 
248 0.100539 0.652779 0.0510591 0.202498 -3.50457 0.472922 -0.487201 -0.362843 
245 0.10499 0.6007 0.00798832 0.529922 -3.50355 -0.754008 0.132305 0.00113959 
246 0.150466 0.650291 0.998412 5.63064 -3.50521 0.192462 0.0365496 0.042425 
247 0.151204 0.601736 0.0585706 0.0968044 -3.51396 -0.205697 -0.229163 -0.38683 
252 0.200145 0.650841 0.0493973 5.56794 -3.51435 -0.248577 0.154596 -0.317592 
250 0.254532 0.648137 0.999917 5.26518 -3.47046 -0.828583 0.271038 -0.561236 
251 0.249005 0.602643 0.0574445 5.31361 -3.48034 0.0515255 -0.574744 -0.0958254 
249 0.200186 0.599248 0.00807365 5.12627 -3.51444 -0.0365863 0.150184 -0.254477 
253 0.302932 0.597611 0.00733516 4.431 -3.50776 0.038671 0.582976 -0.0555407 
256 0.303308 0.65019 0.0466363 5.35869 -3.48561 -0.366647 -0.650931 0.578435 
254 0.353903 0.648805 1.00068 5.28631 -3.44927 -0.476093 -0.257089 -1.40387 
255 0.355502 0.59782 0.0553473 4.5352 -3.49678 -0.647041 0.578139 0.434749 
257 0.401426 0.598765 0.00392835 0.351582 -3.5095 0.103121 0.0360526 0.430383 
260 0.3992 0.649037 0.0451998 0.375092 -3.47392 0.698491 0.211698 1.13144 
258 0.450634 0.650742 0.998666 0.325901 -3.49259 0.105108 0.132657 -0.616096 
259 0.449606 0.600915 0.0557361 4.98061 -3.49948 0.207242 -0.372402 0.108143 
261 0.501445 0.601302 0.00657513 0.258904 -3.49443 0.0239573 -0.743759 -0.0979333 
262 0.549854 0.651321 0.997791 5.59014 -3.47936 0.112856 -1.13513 -0.379466 
263 0.550543 0.597672 0.0570782 0.468981 -3.49899 -0.31953 0.981389 0.547221 
264 0.498904 0.649532 0.045268 5.19544 -3.47971 0.113334 0.837447 1.02336 
267 0.643362 0.601635 0.0595507 4.86027 -3.4678 0.511307 -0.775982 -0.467275 
268 0.595897 0.651549 0.0504128 0.290272 -3.49923 0.0184711 -0.443576 -0.471078 
272 0.693577 0.649525 0.050594 5.31938 -3.50711 0.633917 0.26795 -0.113589 
265 0.598246 0.599334 0.00808701 0.101436 -3.50162 -0.201597 0.124188 0.00198715 
271 0.746535 0.599857 0.0601738 0.263716 -3.50006 0.289903 -0.0482125 -0.804278 
276 0.800146 0.649596 0.0514907 0.192728 -3.50123 0.00940072 0.205418 -0.34842 
275 0.848943 0.599315 0.0590647 5.44395 -3.48591 0.698578 0.531604 -0.0483615 
280 0.901943 0.653404 0.0498565 4.81393 -3.47023 -0.29152 -0.833599 0.141144 
244 1.00126 0.651041 0.0521343 5.29502 -3.50308 0.191856 -0.267214 -0.316032 
279 0.952799 0.600809 0.0616816 5.21188 -3.46725 -0.588559 -0.0304755 -1.19516 
283 0.0505687 0.702111 0.0422651 5.66045 -3.50788 0.186317 -0.0823843 -0.388695 
288 0.100788 0.753134 0.032499 5.05277 -3.4945 -0.335183 -1.1762 -0.170256 
287 0.148345 0.700849 0.0420946 5.43068 -3.51589 0.143745 -0.00515379 -0.132576 
289 0.1992 0.700607 0.991932 5.45132 -3.46519 0.346264 -0.785541 -0.883089 
292 0.198916 0.748058 0.031371 5.26446 -3.49345 0.111863 0.575925 0.230472 
286 0.147866 0.752673 0.980975 5.43785 -3.48889 0.076415 -0.709674 0.320844 
291 0.250844 0.699378 0.0393428 0.115088 -3.50822 -0.308962 0.433038 0.146235 
290 0.248078 0.752142 0.979996 5.03285 -3.48762 0.160096 -0.831269 0.223297 
295 0.351628 0.697465 0.0399917 5.15367 -3.48294 0.247819 0.975658 0.00124175 
296 0.301905 0.747907 0.0283808 5.40989 -3.50654 -0.347227 -0.00402889 0.576835 
293 0.302324 0.697481 0.989877 5.26111 -3.49744 -0.347914 0.33392 -0.365532 
294 0.351397 0.748311 0.979624 5.67412 -3.50573 0.0153726 -0.229651 -0.159822 
297 0.40282 0.698601 0.986757 5.35493 -3.50386 -0.667105 0.544192 0.843401 
299 0.448622 0.701197 0.0389509 4.73397 -3.48667 0.235543 -0.329652 0.395832 
300 0.402006 0.749402 0.0318675 0.406429 -3.47192 -0.451583 -0.489343 -0.766304 
303 0.550698 0.700465 0.0393397 5.45707 -3.49084 -1.10433 0.564744 1.10446 
307 0.649403 0.701815 0.0434024 0.446355 -3.50648 -0.331006 -0.0879665 -0.15209 
311 0.744597 0.697728 0.0426793 5.13584 -3.49504 0.719102 0.362439 0.115119 
315 0.853179 0.701043 0.0406497 5.02324 -3.47316 -0.544291 0.278541 0.773508 
316 0.790948 0.749885 0.0355205 6.10693 -3.46609 1.20855 -0.332623 -0.0431781 
319 0.950043 0.699621 0.0430931 5.1315 -3.5047 0.276333 0.49522 0.0587792 
320 0.902979 0.749928 0.0334411 5.14354 -3.50135 -0.369758 -0.407761 -0.258198 
284 -0.00213365 0.751699 0.0375936 4.84693 -3.48888 0.478641 -0.243213 -0.748804 
323 0.0506425 0.800455 0.0221276 0.347543 -3.50473 -0.124026 -0.305518 0.454126 
327 0.147931 0.802193 0.0217285 5.18268 -3.4794 -0.0827661 0.364269 1.04442 
331 0.249802 0.798243 0.0231573 5.51903 -3.50002 -0.268582 -0.247767 -0.477626 
329 0.19365 0.799376 0.972965 5.58061 -3.48175 0.901447 -0.128858 -0.483532 
335 0.349745 0.795899 0.0205079 0.472047 -3.48748 -0.384049 1.2228 0.125676 
333 0.297819 0.798265 0.971797 0.167947 -3.52448 0.447259 0.32552 0.0110491 
337 0.402966 0.798338 0.973737 5.43724 -3.49132 -0.663146 -0.0596236 -0.924783 
339 0.44783 0.798646 0.0200578 5.20486 -3.48116 0.181499 -0.388105 0.50147 
304 0.497962 0.748692 0.0308471 0.271776 -3.50373 0.166911 0.202353 0.0221949 
343 0.546803 0.80272 0.0224324 5.20705 -3.50728 0.186746 -0.172914 0.411777 
308 0.595012 0.749979 0.0318338 5.44194 -3.494 0.976849 0.0349835 -0.245723 
347 0.650986 0.798876 0.0259732 5.13611 -3.51075 -0.318888 0.243061 -0.0417522 
312 0.701014 0.750864 0.0349327 5.1009 -3.5151 0.172724 -0.0892532 0.173315 
351 0.749896 0.801588 0.0265113 0.32454 -3.4966 0.238599 -0.341213 -0.366383 
355 0.849214 0.796491 0.0252858 5.2874 -3.47647 0.232583 0.66666 0.373647 
359 0.952388 0.801676 0.0258883 5.32002 -3.5157 -0.35205 -0.175639 -0.485612 
363 0.0466325 0.901396 0.00276779 5.25301 -3.5031 0.209433 -0.138999 0.0241313 
324 0.00108892 0.850345 0.0159775 4.93516 -3.50164 -0.19121 0.192165 -0.462144 
328 0.0950648 0.849979 0.0117679 4.88808 -3.47647 0.582015 0.401897 0.452525 
367 0.143258 0.90203 0.00619398 5.00773 -3.44196 0.301823 -0.222962 -0.145244 
332 0.200856 0.84935 0.0118331 5.08572 -3.47043 -0.586086 0.278987 0.654446 
369 0.198256 0.900101 0.954411 4.68718 -3.47428 -0.127887 0.0264335 0.0289932 
371 0.243825 0.901549 0.00485932 4.14812 -3.43999 0.571389 -1.1098 0.221051 
330 0.249446 0.849177 0.963928 0.383179 -3.46464 -0.601349 0.170278 0.234782 
336 0.293417 0.849447 0.0132688 5.48206 -3.47213 0.739247 -0.17636 0.0297378 
373 0.292095 0.897576 0.957073 4.78611 -3.45889 1.40292 0.181949 -0.801735 
334 0.349388 0.847322 0.961416 5.52473 -3.47823 -0.117532 0.460041 0.577921 
340 0.397595 0.850427 0.0136436 5.45525 -3.48487 -0.284888 -0.609102 -0.173205 
375 0.345375 0.898783 0.00415896 5.30275 -3.49802 0.0464973 -0.173335 -0.212951 
377 0.401014 0.901244 0.955915 4.85198 -3.47805 -0.522242 0.060942 -0.133808 
379 0.444179 0.900298 0.00704194 4.72354 -3.45783 0.714298 0.250736 -0.497166 
344 0.495892 0.850714 0.0141877 5.45141 -3.49254 0.275778 0.221309 0.259146 
383 0.554743 0.900504 0.00669759 4.56079 -3.44739 -0.93285 0.095667 0.675276 
348 0.600244 0.850361 0.0169162 0.150347 -3.51164 0.0123597 0.00895253 -0.146295 
387 0.650446 0.90108 0.00903313 4.99039 -3.48396 0.123778 -0.308549 0.0468341 
352 0.700843 0.847838 0.0161612 0.277951 -3.51141 -0.313489 0.535569 0.224692 
391 0.751874 0.899467 0.00905754 5.20036 -3.48299 -0.115419 0.0209902 -0.386834 
356 0.802798 0.848345 0.0194908 4.905 -3.50254 -0.194721 0.2629 -0.486313 
395 0.851771 0.901009 0.00584922 4.69325 -3.46156 0.139804 0.224052 0.604656 
360 0.899727 0.851555 0.0131665 5.26835 -3.48419 0.219121 -0.511452 0.74822 
399 0.950121 0.900456 0.00785219 4.78333 -3.46574 0.0272954 0.0131302 -0.0111537 
3 0.051929 0.00365418 0.0273267 4.9034 -3.48824 -0.568653 -0.238069 -0.658023 
368 0.0939633 0.952722 0.0161027 5.11566 -3.50935 0.289055 -0.346887 -0.0587828 
366 0.145834 0.951921 0.964083 0.316137 -3.51068 0.33382 -0.219377 0.314163 
11 0.249975 0.999585 0.0238477 5.15196 -3.49699 -0.556452 0.388585 0.0514562 
372 0.197186 0.948379 0.0159386 0.405917 -3.48317 -0.371737 1.09701 -0.38559 
370 0.247587 0.948697 0.968213 5.02888 -3.45995 -0.178685 0.780861 -0.959049 
376 0.299658 0.950961 0.0143178 0.381109 -3.50418 -0.433386 -0.249451 0.250167 
15 0.348381 0.00197366 0.0255565 5.46384 -3.50118 -0.186214 -0.250189 -0.493851 
13 0.294748 1.00097 0.973672 5.28125 -3.49428 0.538768 -0.483171 0.010316 
374 0.345041 0.947604 0.964694 5.11071 -3.49468 0.250979 0.2596 0.0536918 
17 0.396896 0.995859 0.974658 4.76711 -3.48162 0.0662196 0.965649 -0.136851 
19 0.44597 0.999164 0.0232925 5.13486 -3.49554 0.56629 0.183862 -0.153104 
380 0.397555 0.949396 0.016848 5.06528 -3.4807 -0.241693 -0.0572727 -0.797202 
384 0.500813 0.951089 0.0135409 0.214709 -3.48084 -0.100516 -0.0986899 0.386059 
23 0.555176 0.00395532 0.0255477 5.59359 -3.46811 -0.971353 -0.681863 -0.200133 
388 0.60276 0.950775 0.01723 0.230128 -3.50477 -0.258361 0.496197 -0.419688 
27 0.655307 1.00097 0.0265341 5.52249 -3.46289 -0.721999 0.233512 -0.968835 
386 0.65204 0.953196 0.967403 5.35435 -3.50405 -0.160513 -0.17204 -0.0566188 
31 0.754422 0.002239 0.0277432 0.263738 -3.50275 -0.10562 -0.118801 -0.422064 
392 0.704411 0.950533 0.016998 5.06947 -3.51073 -0.233805 0.037913 -0.235265 
396 0.802741 0.951554 0.0145158 4.98278 -3.49598 0.149408 0.0324402 0.602248 
35 0.853886 0.00322384 0.0275474 0.188327 -3.51485 -0.390422 -0.305348 0.162185 
39 0.952512 0.00277926 0.0249707 0.29406 -3.51021 -0.332889 -0.18752 0.46736 
400 0.901599 0.952892 0.0199101 0.751777 -3.46119 -0.404169 -0.528983 -0.795542 
364 0.998158 0.950791 0.0146942 0.295756 -3.4961 0.0639544 0.137241 0.0333603 
402 0.0489173 0.0496987 0.0851028 4.71435 -3.47899 0.868177 -0.0924103 0.706947 
408 0.103861 0.0486168 0.138422 0.581607 -3.48679 -0.544861 0.0482324 -1.12659 
406 0.148816 0.0491025 0.0849951 0.156917 -3.47017 -0.575065 1.02511 -0.604941 
412 0.19829 0.0496441 0.134443 5.48643 -3.50261 -0.0335352 -0.837089 0.224349 
410 0.245777 0.0508221 0.0827417 5.41326 -3.5183 0.359979 -0.0337573 0.0102459 
416 0.299761 0.0497442 0.132577 5.44776 -3.48894 -0.417103 0.287238 0.148844 
414 0.348611 0.0522808 0.0796539 5.33831 -3.505 0.143523 -0.410387 0.552041 
420 0.400112 0.0506043 0.130776 0.28934 -3.49343 -0.440552 -0.440302 0.128279 
418 0.449014 0.0518377 0.0803543 5.65066 -3.51233 -0.312418 -0.284653 0.062916 
424 0.499215 0.0508684 0.129432 0.281009 -3.49753 -0.538585 -0.58716 0.421179 
422 0.551481 0.0499773 0.0790166 5.30331 -3.49371 -0.534102 0.0971676 0.357971 
426 0.65055 0.048607 0.0826571 5.24658 -3.50432 -0.0478841 0.735786 -0.293182 
428 0.600594 0.0493074 0.129111 5.10641 -3.49255 -0.66085 0.0197672 0.112922 
432 0.696589 0.0507916 0.131717 5.3767 -3.48844 0.174261 -0.00278414 0.422201 
430 0.747312 0.0518071 0.0868617 5.15335 -3.50178 0.696214 0.0414438 -0.527365 
436 0.798577 0.0523591 0.13648 0.18262 -3.51014 0.429178 0.231392 -0.869016 
434 0.854143 0.05641 0.0893259 5.03305 -3.45456 -0.759551 -0.440956 -0.657306 
440 0.902159 0.0543139 0.134344 0.253282 -3.49315 0.518946 -0.171995 0.742521 
404 0.00569575 0.0520034 0.136683 5.39525 -3.50636 -0.272118 -0.102103 0.368294 
438 0.951979 0.0543922 0.0867754 0.193814 -3.50644 0.112094 -0.374891 -0.110951 
442 0.0509026 0.153027 0.100677 5.10981 -3.51718 0.329726 -0.0233252 0.232296 
443 0.0567153 0.101558 0.143602 0.450775 -3.47365 -1.09989 -0.894898 0.722219 
445 0.0997638 0.100477 0.0965619 0.398496 -3.46672 0.298112 -0.374171 -0.748605 
448 0.0992483 0.150333 0.154135 4.83504 -3.48358 0.748715 0.452315 -0.517317 
446 0.150467 0.153364 0.103103 0.650476 -3.48429 -0.301242 -0.786063 0.421748 
447 0.151465 0.0972803 0.143979 0.426559 -3.48862 -0.145121 1.23171 -0.101625 
449 0.194421 0.0990479 0.0929231 5.33895 -3.49827 0.821632 0.5378 -0.404095 
452 0.204614 0.150108 0.150369 5.00362 -3.46729 -1.09179 -0.702595 -0.0163055 
451 0.245387 0.0982479 0.139651 4.97808 -3.49378 0.59581 -0.042695 0.58168 
450 0.24716 0.14754 0.0990421 4.74852 -3.49973 0.0225642 0.122718 0.0727176 
453 0.299198 0.100772 0.0916629 5.30273 -3.51856 -0.108217 -0.236199 -0.0716875 
456 0.295863 0.150945 0.148978 4.89331 -3.49657 0.630876 -0.364776 0.0383717 
454 0.350172 0.149948 0.101042 5.55887 -3.49422 -0.521612 -0.0769525 -0.200097 
455 0.349425 0.0977745 0.141185 5.37885 -3.50262 0.0088324 0.601212 0.0872559 
457 0.397921 0.103519 0.0903187 0.353799 -3.5168 0.120908 -0.583042 -0.185509 
460 0.397937 0.154287 0.151158 5.1056 -3.46841 0.194229 -1.12882 -0.271694 
458 0.447083 0.151018 0.100487 0.122429 -3.50674 0.331173 -0.154541 -0.138526 
459 0.445128 0.0989194 0.141094 0.504877 -3.49374 0.586615 0.642751 -0.252604 
464 0.497819 0.149818 0.150621 0.124478 -3.49788 0.186288 -0.0671947 -0.0465825 
461 0.499229 0.099793 0.0902265 5.60937 -3.48337 -0.424798 0.266157 -0.419246 
462 0.546405 0.149445 0.100919 0.21912 -3.49978 0.395098 0.42906 -0.141391 
463 0.546017 0.0983744 0.13771 5.38655 -3.46951 0.648918 0.200597 1.05399 
465 0.597824 0.10151 0.0920227 0.254347 -3.50395 0.027849 -0.206958 -0.826326 
466 0.644651 0.15287 0.101003 4.9933 -3.48168 -0.0515163 -0.1894 -0.401603 
467 0.646531 0.101953 0.138217 4.96547 -3.47329 -0.206922 -0.613961 0.525673 
468 0.599466 0.15047 0.15126 5.47984 -3.50549 -0.627249 0.0513069 0.0100959 
469 0.697969 0.101903 0.0931479 5.21512 -3.49877 -0.153694 -0.150136 -0.30533 
472 0.691529 0.148499 0.15067 5.13346 -3.4641 1.14757 0.445195 0.0132355 
471 0.748924 0.099432 0.142357 0.343076 -3.51216 -0.798457 0.519414 0.214999 
470 0.745671 0.149881 0.0997662 5.0068 -3.50349 0.208593 0.510014 0.384991 
473 0.79627 0.103688 0.092204 5.18791 -3.48282 0.737797 -1.04876 0.89255 
476 0.794726 0.15058 0.149991 0.392185 -3.50707 0.450178 0.213359 -0.21886 
474 0.853175 0.150268 0.102289 0.513496 -3.5077 -0.571035 0.575864 -0.322954 
475 0.84818 0.102153 0.141785 5.17589 -3.4901 0.172408 -0.0794992 0.250397 
477 0.905848 0.105612 0.09348 4.9721 -3.45179 -0.505822 -0.634976 0.928367 
444 0.00635295 0.150845 0.15333 4.687 -3.49491 -0.169733 -0.13602 -0.113815 
480 0.897496 0.152045 0.152719 0.783144 -3.46015 0.832182 -0.797162 0.283345 
441 0.00320985 0.10096 0.094218 0.172223 -3.49891 -0.0345262 0.212208 0.591295 
478 0.955779 0.155368 0.103173 4.24912 -3.46676 -0.546208 -1.21274 0.387539 
479 0.955492 0.101417 0.144716 0.209938 -3.50215 -0.502669 0.337206 -0.441578 
483 0.051017 0.200801 0.159816 5.51021 -3.49837 0.124501 0.251884 0.344749 
485 0.100351 0.203259 0.113454 5.58736 -3.47093 0.056789 -0.93729 -0.388494 
488 0.101134 0.255341 0.168588 5.28957 -3.44869 0.149668 -1.61234 0.202822 
487 0.156602 0.201398 0.161501 5.33813 -3.48104 -0.400084 0.0124545 -0.493303 
489 0.20341 0.199501 0.107397 5.21666 -3.47583 -0.488595 0.32125 0.439116 
492 0.19839 0.251234 0.173328 4.87294 -3.44426 0.66313 0.342414 -1.20573 
491 0.246376 0.197045 0.159937 0.740513 -3.46377 0.15889 1.51092 0.081923 
493 0.294327 0.199579 0.109616 5.07636 -3.49771 0.193195 -0.0242376 -0.397317 
495 0.346729 0.202461 0.158634 5.37043 -3.48012 -0.163431 -0.28043 -0.0903452 
497 0.397393 0.200468 0.112139 5.5152 -3.48211 -0.0955009 0.205356 -0.997312 
500 0.397543 0.249145 0.170016 5.54507 -3.50746 0.178672 0.301949 -0.698245 
499 0.450762 0.200605 0.15861 5.33124 -3.50195 -0.22466 0.377467 0.298766 
498 0.445164 0.249012 0.116858 5.37909 -3.5034 0.600136 0.6132 0.0919207 
501 0.499303 0.199888 0.110603 5.45082 -3.50869 -0.141429 -0.0226999 -0.144292 
503 0.550102 0.200303 0.160508 0.167124 -3.50985 -0.290485 -0.39061 0.1013 
502 0.548226 0.249169 0.118417 5.388 -3.50393 -0.286249 0.417485 -0.207428 
504 0.499009 0.252475 0.166633 5.53346 -3.4918 -0.0404367 -0.777311 0.592337 
505 0.597491 0.202996 0.110406 5.00227 -3.47782 -0.202637 -1.01917 0.0803115 
507 0.648028 0.199882 0.158475 0.164786 -3.51396 -0.218375 0.24348 0.445216 
506 0.646459 0.250254 0.11763 5.80003 -3.51017 0.637088 0.370799 -0.128018 
508 0.59646 0.251073 0.165772 5.11975 -3.50248 0.458814 0.252622 0.307254 
509 0.696895 0.198015 0.110884 5.36533 -3.50413 0.277294 0.848403 -0.441891 
511 0.745812 0.199732 0.159517 0.301569 -3.48251 0.495844 0.10455 -0.202629 
512 0.699862 0.251582 0.166627 5.27768 -3.51421 -0.499905 -0.0537225 -0.0915027 
510 0.752303 0.249715 0.117557 4.90377 -3.48846 -0.685553 0.115961 -0.447263 
516 0.796748 0.254269 0.165476 0.666542 -3.47528 0.637356 -0.959242 0.767457 
513 0.800363 0.201026 0.106001 5.26449 -3.48249 0.00225168 -0.0363717 0.607057 
515 0.846746 0.19999 0.159987 5.65025 -3.48571 0.251586 0.534728 -0.42016 
517 0.900923 0.200628 0.110676 0.222939 -3.49759 -0.056304 0.385554 -0.113962 
520 0.896688 0.252783 0.169402 5.45176 -3.44136 1.34208 -1.20798 -0.600409 
514 0.851506 0.253675 0.116513 5.51077 -3.4972 -0.41418 -0.870766 0.279505 
481 0.00190652 0.201445 0.111817 5.38527 -3.48351 0.480591 1.10115 -0.973008 
519 0.951251 0.195647 0.158928 4.91672 -3.44498 0.0539997 2.12178 -0.0139904 