ITEM: TIMESTEP
1250
ITEM: NUMBER OF ATOMS
4000
ITEM: BOX BOUNDS pp pp pp
2.1705500255059138e+00 3.3929449974494119e+01
-1.1913821686105877e+00 3.7291382168610625e+01
-1.1771752513607083e+00 3.7277175251360731e+01
ITEM: ATOMS id xs ys zs c_csym c_peratom fx fy fz 
4 -0.00601413 0.0483889 0.0355388 0.208189 -3.49154 0.560212 -0.133245 0.558452 
7 0.165484 1.00375 0.0464853 1.55822 -3.45556 0.0611523 0.769963 -0.454481 
8 0.103598 0.0513125 0.0425675 0.444509 -3.50422 0.666866 0.196122 0.455297 
12 0.218338 0.0568246 0.050781 4.6176 -3.47167 -0.15877 0.0539458 0.14142 
9 0.215186 0.00256951 0.992113 5.3775 -3.47944 -0.718495 0.24752 0.5219 
16 0.313103 0.0536186 0.0492709 0.353316 -3.50934 -0.240685 0.245782 -0.432873 
14 0.352096 0.0546827 0.992309 4.87254 -3.49344 0.590755 -0.482609 0.793888 
20 0.406031 0.0526037 0.0449657 5.05784 -3.49583 -0.0747141 0.412621 -0.283356 
24 0.496444 0.0537808 0.0408672 4.95783 -3.48416 0.737886 0.2238 0.0150919 
28 0.59996 0.0528419 0.0380419 5.13715 -3.4779 -0.642616 0.0109401 0.0944302 
32 0.694806 0.0481295 0.0368295 5.81182 -3.51052 -0.230543 -0.198007 0.113929 
36 0.789887 0.0453165 0.0321812 0.189983 -3.49416 0.0186316 0.216034 0.0117405 
40 0.888063 0.047092 0.0307292 0.57953 -3.48355 -0.611229 0.36044 -0.53719 
43 0.0484503 0.102391 0.0452457 0.619915 -3.50295 -0.550728 -0.768489 -0.369193 
48 0.101433 0.147078 0.0501236 0.731052 -3.43102 -0.667532 2.04217 0.142859 
47 0.154481 0.103878 0.0508381 0.488878 -3.49284 0.493081 -0.881537 0.0182466 
52 0.206942 0.152997 0.0561643 0.238938 -3.49798 0.8108 0.0646091 0.319523 
51 0.271338 0.107232 0.0562221 4.69303 -3.47444 -0.429502 -0.156154 0.136525 
50 0.266282 0.15813 0.011486 1.03695 -3.49062 0.111893 -0.147408 0.480936 
53 0.310245 0.104231 0.00288828 0.19757 -3.48623 0.193092 0.153136 0.483704 
56 0.31531 0.15919 0.0652154 5.00726 -3.4899 0.146503 0.15774 -0.573929 
55 0.357587 0.105612 0.0524755 5.45861 -3.4999 0.363793 0.0513289 0.294296 
54 0.360276 0.155033 0.00779556 0.209181 -3.4976 -0.16112 0.619012 0.489107 
57 0.401635 0.10387 0.001321 5.29128 -3.49869 0.393637 0.163835 -0.381559 
60 0.409381 0.154606 0.0587643 5.62327 -3.4968 -0.363924 1.05756 -0.0604927 
58 0.45352 0.154436 0.00764562 5.53237 -3.50503 0.416031 -0.442607 -0.696768 
59 0.45392 0.104524 0.0521786 0.193187 -3.4993 0.09666 0.062116 -0.303685 
61 0.501204 0.105121 0.998428 5.39794 -3.46732 -0.466763 -0.634232 -0.370082 
63 0.55201 0.105219 0.0518935 5.88007 -3.48306 -0.296618 -0.870454 -0.582064 
64 0.506061 0.155633 0.0573535 0.33116 -3.50489 -0.445536 -0.440056 -0.312992 
68 0.604686 0.148975 0.0567652 5.05059 -3.45434 -0.608477 0.721433 -1.60658 
62 0.548862 0.151643 1.00203 0.32835 -3.46145 0.801981 -0.017008 0.581917 
66 0.650017 0.148858 -0.00204879 0.212748 -3.49221 -0.43581 -0.0228356 -0.0403996 
67 0.64891 0.100925 0.0446568 0.208595 -3.51978 0.218914 -0.439681 0.099304 
72 0.698289 0.148425 0.0452883 5.60496 -3.4895 0.351229 0.548873 0.461951 
69 0.693953 0.0958655 0.990877 0.134872 -3.51098 -0.0172242 0.590969 -0.11773 
71 0.743898 0.0978149 0.0398596 5.68756 -3.51049 0.0319925 -0.286987 0.378226 
76 0.792766 0.148525 0.0431384 4.36228 -3.5162 0.366808 -0.432504 0.432477 
75 0.837484 0.0957276 0.0363944 5.36236 -3.47983 0.760941 0.114794 0.320734 
80 0.892278 0.145897 0.0405171 5.25169 -3.49293 -0.698489 0.0891688 0.2158 
44 0.985755 0.148043 0.0443792 0.839741 -3.49844 0.11744 -0.731199 -0.212791 
79 0.938398 0.0960041 0.0389704 0.557327 -3.49698 -0.0609905 0.110019 -0.650488 
83 0.0375195 0.197793 0.0501209 0.36104 -3.46856 1.16465 -0.170783 -0.105012 
87 0.149439 0.200276 0.0570364 0.141337 -3.52227 -0.0971548 0.278883 0.0717101 
91 0.258106 0.204577 0.0640204 0.203983 -3.51572 0.178268 0.279312 0.342809 
89 0.207842 0.20479 0.0145866 0.20407 -3.51218 0.40153 0.164896 -0.00165803 
95 0.364993 0.208796 0.0655712 4.83721 -3.4684 0.221024 -0.61257 0.751583 
93 0.31598 0.209075 0.0182921 0.926117 -3.50796 0.238531 -0.594859 -0.0986928 
100 0.414142 0.255624 0.0730685 0.797176 -3.49986 -0.0620486 0.52402 -0.0410302 
99 0.460323 0.206246 0.0628535 5.54002 -3.49696 -0.112428 -0.0815944 0.140175 
98 0.46133 0.256814 0.0177405 0.362917 -3.50022 0.0922428 -0.254841 0.605986 
97 0.412783 0.205913 0.0128823 4.46394 -3.4901 -0.691118 -0.336363 0.780076 
103 0.55577 0.200771 0.0580329 5.6349 -3.46457 0.216709 0.482797 0.218613 
102 0.559207 0.253555 0.0143463 4.97478 -3.49383 -0.487857 -0.907405 -0.13972 
104 0.515155 0.253178 0.0694837 5.26429 -3.50464 -0.715424 0.00821075 -0.306065 
101 0.504148 0.202939 0.00680948 5.13798 -3.4904 0.348984 0.0113945 0.968622 
105 0.603451 0.196926 0.00694829 0.381915 -3.51536 -0.103491 0.300585 0.157372 
107 0.652736 0.201087 0.0574137 0.215081 -3.50563 0.244672 -0.116322 -0.439577 
108 0.605729 0.250888 0.0639348 5.39286 -3.50237 0.38765 -0.0742199 0.350765 
109 0.700115 0.199533 0.00121114 0.307415 -3.46774 -0.177411 -0.547468 -0.0438435 
106 0.652856 0.247688 0.00935439 5.53877 -3.49911 -0.0757984 0.336815 -0.117381 
112 0.70275 0.249322 0.0601722 0.254519 -3.50713 0.0799324 0.316883 -0.101726 
111 0.752998 0.201829 0.0549427 5.18948 -3.46928 -0.682285 -0.513903 -0.44233 
116 0.799902 0.249821 0.0569051 5.44116 -3.48742 -0.0973259 0.0313127 0.161037 
115 0.842011 0.198868 0.0459935 4.75092 -3.48796 0.37123 0.156848 0.633681 
120 0.889053 0.250335 0.0530534 5.13427 -3.49024 0.468516 -0.663296 -0.0472922 
119 0.935685 0.195021 0.0457635 5.15008 -3.47506 -0.0171995 1.23211 0.0831196 
123 0.0357009 0.297101 0.0556384 1.0212 -3.46332 -0.267074 -0.0900406 0.190796 
88 0.0925876 0.247115 0.0546523 0.493732 -3.51043 -0.0308355 -0.0621016 0.229192 
127 0.142496 0.300778 0.0622731 0.217587 -3.50093 0.4044 -1.26491 0.231675 
92 0.201754 0.252719 0.0653551 0.298463 -3.51259 -0.344232 0.0439953 -0.120832 
129 0.203576 0.303409 0.0186005 0.0806307 -3.50729 0.119999 -0.247573 0.0301093 
131 0.254168 0.301949 0.0673212 0.412439 -3.49627 -0.230408 0.326561 0.704657 
90 0.262228 0.254865 0.0211792 0.360688 -3.50541 -0.448029 -0.0219342 -1.02987 
96 0.310038 0.253147 0.072159 0.783077 -3.47409 0.222752 0.598818 -0.290788 
94 0.36522 0.257867 0.0226533 0.657581 -3.4674 -0.514786 -0.085642 0.455939 
135 0.356877 0.304234 0.0748836 0.214025 -3.49404 -0.0993103 0.364372 0.31326 
133 0.308875 0.303353 0.0272294 0.446759 -3.47334 0.838757 0.654605 -0.537262 
137 0.415083 0.307531 0.0272012 0.878933 -3.46419 -0.522235 -0.459186 -0.420573 
139 0.466156 0.30445 0.0775356 0.757627 -3.47518 -0.185221 0.117417 -0.469183 
143 0.561645 0.303379 0.0719047 5.70821 -3.51029 0.213434 -0.108105 0.643603 
141 0.514858 0.301554 0.0227045 0.47704 -3.48719 -0.500904 -0.0645823 0.138854 
147 0.65931 0.299946 0.0726102 5.26226 -3.4999 -0.403269 0.270893 -0.693062 
145 0.607896 0.298871 0.0200336 0.336516 -3.48307 0.0614492 0.959527 -0.302223 
151 0.750821 0.299263 0.0669272 5.58885 -3.51035 -0.151259 0.167913 -0.0881098 
155 0.848367 0.29965 0.0638954 0.275266 -3.50507 -0.24448 0.627737 -0.129903 
84 0.985109 0.248396 0.051991 0.61699 -3.45827 -0.611046 -0.809201 -0.675303 
159 0.937843 0.301524 0.0580765 4.96119 -3.49806 0.549997 -0.37779 -0.0828959 
163 0.042776 0.397922 0.0717031 5.27192 -3.45011 0.0119775 0.0951395 -0.870036 
128 0.0884627 0.346188 0.0603526 5.017 -3.47378 -0.557139 0.601205 -0.0429832 
167 0.135122 0.397812 0.0646385 1.25515 -3.48044 0.248096 0.692881 0.500331 
132 0.192186 0.34975 0.0696309 0.411951 -3.50324 0.310152 0.296045 -0.358584 
171 0.247844 0.397448 0.0717319 0.430053 -3.52184 -0.246192 0.336709 0.284133 
169 0.194837 0.399905 0.0232955 0.729142 -3.493 0.660858 -0.66026 -0.804721 
130 0.253087 0.352042 0.0245978 0.191716 -3.51689 0.198109 0.22493 0.337881 
136 0.302399 0.3528 0.0759035 0.265038 -3.51873 0.374652 -0.159605 -0.155168 
134 0.359802 0.353454 0.0288972 0.0541692 -3.50928 -0.116508 0.0243795 -0.362268 
175 0.354924 0.401709 0.0770225 0.0868439 -3.51772 0.241503 -0.0345951 0.216141 
173 0.306685 0.401705 0.0291579 0.266485 -3.51863 -0.311731 0.033102 0.160819 
140 0.409888 0.352563 0.0758462 0.197114 -3.51092 0.381858 0.259198 0.530503 
177 0.412651 0.402958 0.0307805 0.279241 -3.48812 0.085773 -0.687692 -0.0761898 
179 0.457733 0.402502 0.0800249 0.691369 -3.42636 0.60933 -1.42937 1.30128 
138 0.465699 0.35002 0.02619 1.02972 -3.44868 0.660413 0.485817 0.978046 
144 0.513816 0.352473 0.0799714 0.38148 -3.46481 -0.268826 0.228565 0.473386 
142 0.55856 0.351948 0.0294312 5.08428 -3.47348 0.666442 -0.23913 -0.555935 
181 0.510901 0.400501 0.0371365 1.95627 -3.47297 0.410558 0.449 -0.874749 
183 0.562622 0.400651 0.0828461 0.402463 -3.4538 0.417991 0.462238 0.135323 
146 0.655753 0.350616 0.0252688 6.09172 -3.49024 -0.458117 -0.184542 0.559058 
148 0.610626 0.352857 0.0819524 4.84508 -3.49333 0.15382 0.221199 -0.596495 
185 0.606961 0.400005 0.0303051 0.481328 -3.47556 0.222258 -0.20426 0.67032 
187 0.659217 0.403363 0.0840097 1.35928 -3.43208 0.0915824 -0.856901 -0.596152 
152 0.70803 0.351811 0.0769729 5.11523 -3.48452 -0.032277 -0.230383 -0.519711 
191 0.759535 0.4035 0.0798679 1.59151 -3.42114 -1.06738 -0.511517 0.521508 
156 0.798824 0.350585 0.074031 4.77251 -3.48579 0.52881 0.389696 -0.449576 
160 0.899674 0.352011 0.0699765 5.11258 -3.47577 -0.510833 0.376021 -0.534475 
195 0.853147 0.401372 0.0770854 5.14106 -3.46203 -0.452202 -0.0582811 0.10884 
124 0.992483 0.350541 0.0604298 5.6036 -3.48146 -0.210329 -0.721787 1.12505 
199 0.949261 0.402368 0.0726689 4.67633 -3.48096 -0.474956 0.00194831 0.101058 
161 0.993919 0.400825 0.019281 2.45671 -3.40796 -0.261862 0.286643 -0.178464 
168 0.0840433 0.452432 0.0561719 4.3359 -3.47132 0.220305 -0.105884 0.129971 
203 0.0346382 0.50358 0.0506406 4.29026 -3.46469 -0.182377 0.453617 0.544174 
205 0.088523 0.50231 0.00756017 0.781759 -3.46184 1.11906 -0.0652763 0.559265 
166 0.146541 0.450081 0.0185738 0.528848 -3.49479 -0.687751 0.0756119 -0.0919289 
207 0.143061 0.501948 0.0609847 0.212567 -3.47484 -0.261918 0.0386006 -0.72201 
172 0.197359 0.447217 0.0690276 0.744252 -3.47523 -0.609712 0.142428 -0.471243 
170 0.253528 0.448521 0.0246938 0.216682 -3.49977 -0.296026 0.210026 -0.132146 
209 0.200068 0.499422 0.0208242 0.44042 -3.48444 0.293504 0.412813 -0.627149 
176 0.30079 0.448123 0.0770634 0.838402 -3.46901 0.107355 0.427985 -0.535448 
174 0.356925 0.451358 0.0285262 0.303037 -3.51524 0.138052 0.0406596 0.0952175 
215 0.356811 0.500206 0.071788 0.397035 -3.49319 -0.133859 -0.686484 0.823813 
213 0.304603 0.497538 0.0211903 0.363402 -3.47612 0.251896 0.151574 0.431159 
180 0.409698 0.448897 0.0776021 0.209505 -3.48021 -0.340689 0.763798 0.519921 
178 0.461478 0.450071 0.0332996 0.963282 -3.49162 0.706853 0.678936 -0.82244 
217 0.414008 0.498798 0.0288091 0.940757 -3.48615 -0.119725 -0.400747 -0.105337 
219 0.466144 0.499829 0.0794218 0.969014 -3.47522 -0.139788 -0.442286 -0.23785 
182 0.56083 0.452323 0.0274236 5.21557 -3.4981 -0.593875 -0.54199 0.578376 
184 0.513421 0.451664 0.0822084 0.672209 -3.49277 0.58102 -0.554452 -0.186143 
221 0.510514 0.503288 0.0222593 0.52788 -3.45427 -0.0996392 -1.06721 0.930076 
223 0.562713 0.500205 0.0751089 5.23282 -3.51452 -0.157405 -0.178789 -0.0450463 
186 0.650818 0.451056 0.0256213 5.31396 -3.48059 0.959713 0.770426 0.644508 
188 0.61044 0.448743 0.0798771 0.322655 -3.49382 -0.637771 0.384965 0.390216 
227 0.652525 0.501055 0.0751909 4.88222 -3.47428 1.30468 -0.523525 -1.64929 
192 0.706255 0.451121 0.0765614 5.52072 -3.4886 -0.262009 0.196997 -0.249244 
196 0.800599 0.450367 0.0696065 5.55792 -3.4397 0.85948 1.20913 0.922729 
200 0.899637 0.452456 0.064967 5.3043 -3.48609 -0.319831 1.07872 0.821823 
235 0.84769 0.503818 0.0614105 0.25494 -3.48338 0.0463485 -0.304396 1.01277 
164 0.993944 0.452693 0.0612257 5.23234 -3.46848 -0.105196 -0.011222 -0.0632917 
239 0.94545 0.506395 0.0574632 4.49355 -3.49629 -0.151733 -0.411031 0.122721 
208 0.0920096 0.553717 0.052385 0.200136 -3.51644 -0.874949 0.258615 0.409242 
206 0.150842 0.552676 0.0113994 0.464676 -3.48692 -0.246653 -1.03654 -0.264402 
212 0.200074 0.552534 0.0612812 0.157096 -3.499 -0.123571 -0.446195 -0.120517 
211 0.249997 0.501076 0.0707824 0.559454 -3.45795 -0.200224 -0.498172 -1.31061 
210 0.257746 0.549817 0.0193381 0.495943 -3.47827 -0.330944 -1.18241 -0.432863 
216 0.304899 0.547048 0.0667268 0.333922 -3.50319 0.646427 0.186172 0.814324 
214 0.362781 0.54491 0.0216167 4.74314 -3.47776 0.180937 -0.139086 0.010808 
220 0.416896 0.545411 0.0743255 4.37019 -3.48079 -0.626211 0.138807 -0.133139 
218 0.461337 0.548952 0.0229292 0.685721 -3.47608 -0.42083 -0.495475 -1.47964 
224 0.512802 0.548263 0.0703894 5.02543 -3.49888 0.132872 0.434381 -0.16346 
222 0.557138 0.549281 0.0123735 5.29397 -3.4492 -0.0249553 1.24066 1.58736 
228 0.606554 0.551037 0.0662882 5.63061 -3.49298 -0.375699 0.197558 0.0450115 
232 0.702232 0.552366 0.0674496 5.21239 -3.45367 -0.726364 -0.398481 -1.54549 
225 0.606523 0.503142 0.0225732 5.5883 -3.49332 0.0238892 -0.794589 -0.813376 
226 0.64912 0.552344 0.0110309 5.60213 -3.48651 0.449226 0.169638 0.209924 
231 0.748576 0.502091 0.069322 0.225097 -3.4759 0.601779 0.131171 -0.198385 
236 0.799198 0.553607 0.0598511 5.43612 -3.51212 -0.457971 -0.528257 -0.405156 
240 0.891442 0.552316 0.0547378 4.82841 -3.50737 0.712694 1.18146 -0.225236 
204 0.98704 0.559876 0.0512431 5.30564 -3.45552 -0.0106621 -0.448242 -0.652073 
243 0.0386521 0.606797 0.0435054 1.13853 -3.43883 -0.29557 -0.164157 0.961814 
248 0.100112 0.651269 0.0471738 0.41078 -3.51589 0.199005 0.242542 -0.349068 
245 0.0943558 0.601193 0.00654584 0.913657 -3.47005 1.05686 0.333896 -1.29629 
246 0.15953 0.646491 0.000317629 0.884662 -3.47208 -0.725725 0.893996 1.02458 
247 0.148002 0.600769 0.052769 0.225377 -3.50485 0.259324 0.526288 0.0645897 
252 0.205654 0.649072 0.0527878 0.233867 -3.50996 0.308172 -0.345839 0.434766 
250 0.265468 0.645595 0.00944397 3.97578 -3.48841 -0.447538 -0.593077 0.220014 
251 0.253616 0.598444 0.0618155 0.277316 -3.47964 0.687048 0.196109 -0.232377 
249 0.208243 0.597979 0.0122701 0.223173 -3.50419 0.0901145 0.0373995 -0.879604 
253 0.312482 0.591578 0.0164169 4.87685 -3.47206 0.313249 0.759255 -0.393328 
256 0.312291 0.643058 0.0601739 4.62358 -3.50067 0.152627 -0.0773852 0.200064 
254 0.355178 0.644715 0.00494755 5.13835 -3.49053 0.811326 0.99335 1.25363 
255 0.364956 0.591048 0.0661087 4.47052 -3.4918 -0.368993 0.683993 0.456202 
257 0.408105 0.595903 0.0131157 5.42541 -3.51712 -0.0574641 -0.136812 -0.305701 
260 0.407017 0.644171 0.0560755 5.44474 -3.46897 0.368312 0.673987 0.311736 
258 0.455601 0.645772 0.00470455 5.47855 -3.50849 0.171005 0.313192 0.0198275 
259 0.458363 0.596926 0.0636369 5.31503 -3.49577 0.316729 0.579662 0.387629 
261 0.50728 0.597442 0.0102906 5.31982 -3.51691 -0.484223 0.430521 -0.0858871 
262 0.548916 0.649118 1.00146 5.31568 -3.49253 -0.115143 0.106603 -0.255046 
263 0.556142 0.600835 0.060658 5.30584 -3.49546 -0.248951 -1.21224 -0.458506 
264 0.505144 0.648423 0.0562028 5.48249 -3.51731 0.0179281 0.230498 -0.45325 
267 0.650174 0.600932 0.0573412 5.43741 -3.50617 -0.170114 0.308018 -0.0593191 
268 0.597208 0.649933 0.0508756 5.33821 -3.48363 0.423457 -0.175327 0.251655 
272 0.697597 0.650621 0.0512242 5.24307 -3.46662 -0.222779 0.0489563 -1.12443 
265 0.599685 0.601236 0.00407753 5.39375 -3.50231 0.0805008 0.249689 0.483462 
271 0.749293 0.60267 0.0511066 5.21645 -3.50044 -0.626737 -0.639067 0.350337 
276 0.789976 0.652039 0.0437038 4.89086 -3.48394 0.492794 0.047986 0.0668126 
275 0.843987 0.603626 0.0442926 4.61921 -3.50146 -0.331018 0.234653 0.936829 
280 0.893965 0.654375 0.0411896 5.46828 -3.46751 -1.18528 0.462823 0.12684 
244 0.985254 0.656486 0.0381641 4.06244 -3.4624 0.0738467 -0.222584 0.359039 
279 0.934911 0.606466 0.0471432 4.85779 -3.46399 0.841567 -0.872233 -0.406022 
283 0.0473222 0.703943 0.0400655 0.217435 -3.51871 -0.305497 -0.0955561 -0.0510377 
288 0.108032 0.750283 0.042736 0.479366 -3.48391 -0.574141 -0.125316 -1.19595 
287 0.156929 0.700688 0.0489623 0.376793 -3.42623 -0.372328 -0.881367 -1.21222 
289 0.215869 0.696349 0.00275389 4.64348 -3.48788 -0.450434 -0.143548 0.134132 
292 0.209896 0.743935 0.0482718 5.23611 -3.48227 1.20273 0.830824 0.175344 
286 0.163379 0.748548 0.995696 0.559663 -3.4439 -0.841872 -0.817926 0.458102 
291 0.265936 0.694959 0.0516668 1.08764 -3.46869 0.206688 -0.158153 0.844716 
290 0.262656 0.74601 0.998066 5.17558 -3.43035 -1.45037 0.927819 -1.26407 
295 0.355809 0.696988 0.0538998 4.95896 -3.46928 0.830444 -0.745082 -1.22274 
296 0.310162 0.746857 0.04367 5.90378 -3.48013 -0.0102438 0.379064 0.998879 
293 0.308338 0.695592 0.000493725 5.23874 -3.49263 0.0890739 0.229917 0.0282896 
294 0.352937 0.744509 0.99587 5.49753 -3.4555 0.869131 0.705426 -0.876676 
297 0.405419 0.69356 -0.00155232 4.81033 -3.48738 -0.423337 0.58756 0.0842288 
299 0.453576 0.698566 0.049054 0.123059 -3.50702 0.165136 -0.447612 -0.279529 
300 0.405004 0.747927 0.0413184 5.09323 -3.50878 -0.0288059 -0.37517 0.136664 
303 0.55263 0.699132 0.0424592 5.53987 -3.47861 -0.939347 0.350542 0.656716 
307 0.641693 0.698061 0.0415581 4.89316 -3.45373 0.663382 0.903143 0.0838281 
311 0.741488 0.701858 0.038353 5.14468 -3.50295 -0.0955807 0.645258 0.229578 
315 0.838754 0.705508 0.037691 5.1222 -3.47531 -0.205328 -0.3521 -0.161962 
316 0.788932 0.753317 0.0334102 5.33767 -3.51268 -0.284321 -0.358239 -0.787794 
319 0.93405 0.706095 0.0311522 4.49201 -3.48985 0.0227127 0.399865 0.399657 
320 0.884712 0.757908 0.0281345 1.44557 -3.50408 -0.0566948 -0.269155 -0.32995 
284 -0.00316514 0.754498 0.0360802 0.500592 -3.50656 -0.309276 -0.275491 -0.651348 
323 0.0560704 0.800962 0.0353643 0.147924 -3.52076 0.127225 0.00328675 -0.121908 
327 0.159235 0.797549 0.0402384 0.615188 -3.48466 1.15856 0.248411 0.602235 
331 0.260165 0.797212 0.0379951 0.472993 -3.50338 0.458475 0.639786 1.02069 
329 0.210252 0.803199 0.988435 5.36827 -3.41393 0.85873 -2.21747 -0.420095 
335 0.360069 0.797693 0.0373443 4.83134 -3.48565 -0.365266 0.815131 0.402516 
333 0.309032 0.800081 0.984687 5.23515 -3.48376 -0.183548 -0.175255 0.635143 
337 0.399329 0.800771 0.98466 0.393899 -3.46771 0.429037 -0.0296318 0.151179 
339 0.449522 0.800548 0.03116 0.392241 -3.50296 0.44371 -0.319755 1.19045 
304 0.498184 0.74997 0.040531 5.56893 -3.46594 0.0246637 -0.635171 -0.883511 
343 0.540266 0.798397 0.0284024 4.87393 -3.49498 0.244961 0.275944 0.0419657 
308 0.591067 0.754092 0.0332849 5.27633 -3.48495 0.502035 -0.946101 -0.0545244 
347 0.639216 0.801041 0.0265801 0.199352 -3.50451 0.276106 -0.0669511 0.169334 
312 0.687092 0.752442 0.0314439 0.567914 -3.48328 0.802927 -0.502467 0.473153 
351 0.736746 0.802376 0.0233378 5.2139 -3.50061 0.101339 -0.184994 0.119003 
355 0.832584 0.805066 0.0255903 1.11801 -3.46901 0.0153692 -0.0490011 -0.04137 
359 0.947383 0.804776 0.0249064 0.74962 -3.51043 -0.0863981 -0.0744321 0.578116 
363 0.0632 0.900611 0.0297395 1.2672 -3.44226 -0.249212 -0.619829 -0.183592 
324 0.00544101 0.851425 0.0299838 0.288939 -3.51767 -0.226722 -0.386331 -0.715441 
328 0.115616 0.849068 0.0370175 1.5764 -3.46644 -0.42842 0.330505 -0.958393 
367 0.15996 0.902688 0.0272119 4.8077 -3.4553 0.242071 -0.153139 0.280329 
332 0.212872 0.849942 0.0322117 0.271995 -3.48505 -0.499334 0.00365245 0.534379 
369 0.21115 0.902425 0.976216 1.39239 -3.45575 -0.297209 -0.168025 -0.470576 
371 0.259699 0.899583 0.0250893 4.9854 -3.45311 0.178989 0.421734 0.43129 
330 0.261511 0.852545 0.982406 5.32164 -3.49121 -0.224975 -0.498824 -0.414232 
336 0.308785 0.847412 0.0334087 0.374207 -3.51596 -0.119992 -0.0346522 -0.228797 
373 0.310168 0.900284 0.975922 5.09958 -3.43826 -1.03157 -0.49144 -1.17224 
334 0.355831 0.849049 0.981244 5.40233 -3.46239 -0.245922 0.554453 -1.05002 
340 0.406868 0.852267 0.0305438 5.06019 -3.46645 -1.02012 -0.834369 -0.953003 
375 0.353982 0.899826 0.0256666 1.14287 -3.45173 0.377612 0.871393 -0.61062 
377 0.402551 0.89968 0.967537 4.95721 -3.45155 -0.513963 0.545376 0.548213 
379 0.449243 0.902431 0.0194344 4.48707 -3.49299 0.436411 -0.255845 -0.484656 
344 0.495407 0.850413 0.0255004 0.102521 -3.49823 -0.0935857 -0.850523 -0.872314 
383 0.542694 0.898676 0.016275 4.9091 -3.48013 -0.144168 0.685528 0.229656 
348 0.587235 0.848699 0.0200442 4.97066 -3.4723 0.212262 0.141117 0.343826 
387 0.633183 0.897654 0.015434 4.57874 -3.44389 0.29975 0.0118369 0.518929 
352 0.687007 0.849046 0.0203036 0.348042 -3.49904 -0.442842 0.144302 -0.281427 
391 0.733304 0.898457 0.0151889 0.781847 -3.42366 -0.235851 0.258683 -0.190155 
356 0.784803 0.854002 0.0182799 0.607671 -3.49065 0.175858 -1.00537 -0.293045 
395 0.835431 0.900145 0.017178 0.673786 -3.50173 0.316494 -0.319404 -0.242526 
360 0.891667 0.851836 0.0197747 0.507509 -3.49192 -0.0103793 -0.244627 0.865818 
399 0.948608 0.899256 0.0217617 0.565883 -3.51816 0.0423478 0.466666 0.332787 
3 0.0536149 0.997936 0.0372248 0.658729 -3.49013 -0.00834536 1.53052 0.232595 
368 0.112428 0.95652 0.0365929 1.51532 -3.48804 0.101919 -0.752898 0.118819 
366 0.161942 0.9529 0.985902 0.128356 -3.49436 -0.186367 -0.0337071 -0.109826 
11 0.262713 0.00530809 0.0441857 5.7504 -3.49476 -0.151376 -0.61753 -0.361456 
372 0.211747 0.951205 0.036181 5.60389 -3.50779 0.200525 0.294629 0.0206657 
370 0.261119 0.951889 0.982366 5.70945 -3.5023 -0.367921 -0.412265 0.148548 
376 0.309681 0.951324 0.0327013 5.45534 -3.49384 -0.461136 -0.01681 0.148913 
15 0.35939 0.00295194 0.0383822 5.7417 -3.50958 -0.654473 -0.129288 0.281426 
13 0.307404 0.00155463 0.988238 0.164877 -3.50722 0.191016 0.0918191 0.355716 
374 0.352208 0.951049 0.978881 5.3178 -3.4795 0.649533 -0.244635 0.833429 
17 0.399347 1.00283 0.986761 5.04632 -3.50457 0.470162 0.0152805 -0.413999 
19 0.453593 0.00388602 0.0327206 5.1189 -3.50524 -0.267663 -0.13206 0.130513 
380 0.401108 0.951344 0.0306546 5.06794 -3.50268 0.379652 -0.0228767 -0.640252 
384 0.500977 0.95337 0.0244348 5.03496 -3.48485 -0.364974 -0.479122 0.446965 
23 0.547635 0.00581382 0.0331403 5.20514 -3.49994 -0.177412 -0.299274 -0.143335 
388 0.591887 0.952698 0.0250533 4.89857 -3.50518 -0.319008 -0.378642 -0.0327065 
27 0.643445 0.997407 0.030475 0.428929 -3.50248 -0.0328683 0.81922 0.0787225 
386 0.635792 0.948449 0.973591 5.20907 -3.46411 0.452142 0.831693 -0.369272 
31 0.739849 0.995373 0.0303264 0.432658 -3.50487 -0.100775 0.554213 -0.780261 
392 0.686954 0.948233 0.0231252 0.114604 -3.50557 -0.100363 -0.320004 0.126175 
396 0.78443 0.944662 0.0166106 4.84269 -3.47405 0.186733 0.560425 0.559294 
35 0.840689 0.994933 0.0247533 0.562891 -3.46268 -0.855505 -0.214297 -0.519079 
39 0.939312 0.996454 0.0295891 0.600676 -3.49683 0.796968 -0.037093 0.271708 
400 0.889645 0.946909 0.0214501 0.516979 -3.47462 1.053 -0.57273 0.308709 
364 0.00182657 0.952024 0.0278728 0.534505 -3.47841 -0.200452 -0.405362 0.483373 
402 0.0456178 0.0483682 0.0861044 0.175377 -3.5144 -0.158643 -0.0552716 -0.361142 
408 0.0978068 0.0480619 0.131699 0.658585 -3.45911 -0.340038 0.476134 1.21021 
406 0.157167 0.0520622 0.0966483 0.374012 -3.48542 0.38228 -0.248828 -0.984837 
412 0.208317 0.052971 0.145247 0.179747 -3.51569 -0.121837 -0.0247374 -0.185471 
410 0.267066 0.0561858 0.103083 1.67507 -3.46568 0.543487 -0.0256714 -0.723121 
416 0.31696 0.0555351 0.152884 4.56043 -3.4646 0.090586 0.16611 -0.635558 
414 0.362357 0.0539763 0.0950392 4.78703 -3.47296 -0.149595 0.0770063 1.01723 
420 0.409763 0.0551404 0.147663 0.161115 -3.48538 -0.0785664 -0.151087 0.273378 
418 0.452322 0.0562319 0.0971129 5.0044 -3.49839 0.580677 -0.529688 -0.597446 
424 0.504791 0.0518877 0.145432 0.286448 -3.48035 -0.34217 0.928688 -0.0523462 
422 0.548779 0.0516841 0.0897463 0.580885 -3.47768 0.0917868 0.431519 0.586596 
426 0.645369 0.0486449 0.0880967 0.473733 -3.49395 0.334718 0.614023 0.0714794 
428 0.600919 0.0502708 0.144399 5.57754 -3.49192 -0.0885337 0.243507 -0.447549 
432 0.694785 0.0475964 0.138009 5.03403 -3.46487 0.632166 0.862276 -1.25287 
430 0.744079 0.0482965 0.0876047 0.240888 -3.50391 -0.28376 0.449577 -0.51991 
436 0.792102 0.048997 0.136065 0.144491 -3.48455 -0.172942 0.579909 -0.257043 
434 0.839173 0.0454004 0.0836693 5.13236 -3.49646 0.008996 0.642576 -0.589003 
440 0.887005 0.0508264 0.130389 5.3145 -3.50818 0.267924 -0.389517 0.418712 
404 0.982921 0.0442228 0.126791 4.27253 -3.47956 0.286007 0.331753 0.518911 
438 0.931487 0.0446578 0.0795966 4.54603 -3.45207 0.475402 0.138656 -0.110351 
442 0.0396135 0.146116 0.0904162 0.976949 -3.49774 -1.05705 -0.557539 0.927555 
443 0.0360245 0.095125 0.133526 1.22043 -3.48495 0.284093 -0.0636867 0.494767 
445 0.0993478 0.0975738 0.0949279 0.536387 -3.48214 -0.454774 0.26636 -0.606746 
448 0.089578 0.145815 0.14077 0.708791 -3.45688 -0.636906 -0.25254 0.116006 
446 0.150793 0.149492 0.0976985 0.3583 -3.50501 -0.130343 0.275994 0.548447 
447 0.148121 0.100379 0.141192 0.202617 -3.51198 0.260887 -0.327783 0.450178 
449 0.20883 0.10324 0.100118 0.054935 -3.5295 0.151128 -0.0742057 -0.16815 
452 0.200169 0.150377 0.148185 0.202406 -3.49452 -0.360517 0.228575 0.13055 
451 0.261504 0.102062 0.148593 0.488717 -3.5223 -0.234592 0.365867 0.434203 
450 0.260526 0.153229 0.107088 0.208682 -3.50229 -0.212226 0.37625 0.310382 
453 0.31948 0.108918 0.106834 4.95905 -3.46253 0.0239264 -0.593022 0.29131 
456 0.308958 0.156314 0.157705 0.142033 -3.52409 -0.123852 0.0477151 0.0815794 
454 0.366535 0.1597 0.114781 4.09209 -3.50016 -0.227439 0.553299 -0.213493 
455 0.368192 0.110719 0.158059 4.50769 -3.46403 -0.593664 -0.200068 -0.248361 
457 0.411582 0.107596 0.104482 5.35982 -3.48182 -0.783049 -0.541744 0.146156 
460 0.417389 0.15666 0.162079 1.48899 -3.45716 -0.170631 1.16373 0.141918 
458 0.456745 0.154873 0.108548 5.08122 -3.48689 0.573156 0.697483 -0.108573 
459 0.458085 0.105972 0.153387 5.32303 -3.46507 -0.146023 -0.96733 1.26572 
464 0.510898 0.154651 0.160603 5.59581 -3.50241 0.0116361 -0.0923274 -0.395653 
461 0.504413 0.103873 0.102256 5.65858 -3.51982 -0.00238547 0.136234 -0.0452942 
462 0.555892 0.155146 0.10586 0.441627 -3.49345 -0.28811 -0.866938 0.415916 
463 0.555181 0.101103 0.151467 0.203716 -3.5027 -0.173938 0.592414 -0.501057 
465 0.604933 0.101837 0.100073 4.7356 -3.48661 -0.551409 -0.250858 0.174815 
466 0.653844 0.152204 0.101396 0.279978 -3.45923 0.122363 -0.661209 0.392475 
467 0.65616 0.099533 0.145682 5.07395 -3.47747 -1.13175 0.930557 0.572753 
468 0.608434 0.149392 0.151594 5.23217 -3.47996 -0.144049 0.141427 0.921189 
469 0.697097 0.100858 0.0950014 5.04405 -3.46902 0.639314 -1.13567 -0.588775 
472 0.698633 0.152659 0.149413 4.88014 -3.48117 0.640425 -0.0161019 0.57116 
471 0.743953 0.10034 0.142865 4.57394 -3.50514 0.44062 0.0166542 0.00442172 
470 0.751611 0.15126 0.0971911 5.21131 -3.49127 -0.579526 -0.260629 0.0821469 
473 0.794935 0.096503 0.0900925 5.0208 -3.50321 -0.188665 0.798941 -0.25433 
476 0.797445 0.146388 0.148274 5.21258 -3.45031 -0.423602 0.985502 -0.301476 
474 0.843252 0.150763 0.0917964 5.31231 -3.50656 -0.236261 -0.467975 0.598352 
475 0.842946 0.100697 0.140054 0.335298 -3.47143 -0.184821 -0.233853 -0.196498 
477 0.885711 0.0991002 0.086661 4.86003 -3.49808 0.574667 -0.30561 -0.0631913 
444 0.987683 0.146775 0.141134 0.210086 -3.50529 0.620396 0.0824122 0.172997 
480 0.891175 0.148489 0.143162 5.17218 -3.51013 0.216355 0.160058 0.456263 
441 0.986549 0.0936324 0.0872511 1.23505 -3.4723 -0.126064 0.49076 -0.505148 
478 0.93941 0.146169 0.0940302 0.275658 -3.49533 -0.301314 0.0996143 -0.534577 
479 0.939859 0.0990018 0.13766 5.42836 -3.49626 -0.39577 -0.510944 -0.0242789 
483 0.0370903 0.197668 0.147132 0.41289 -3.45924 -0.220349 -0.905765 -0.329408 
485 0.0874082 0.195128 0.101597 0.857031 -3.47759 0.313245 0.158005 -1.9445 
488 0.0853924 0.244261 0.148996 4.43938 -3.46621 -0.179061 -0.510145 1.67712 
487 0.136563 0.194485 0.147651 1.15997 -3.45138 1.03736 0.459597 0.79086 
489 0.203075 0.201727 0.10707 0.46027 -3.50351 -0.624273 -0.142756 -0.17714 
492 0.192647 0.24726 0.155132 0.279913 -3.50777 -0.286875 0.178188 -0.294515 
491 0.247533 0.202002 0.157213 0.248298 -3.49702 0.608788 0.111395 0.217587 
493 0.309966 0.209621 0.116098 0.731667 -3.48276 -0.00693787 -1.01103 -0.0131296 
495 0.358678 0.207369 0.168335 0.691661 -3.50203 0.0284805 -0.230846 -0.972347 
497 0.415803 0.20923 0.121406 4.56747 -3.46513 -0.303112 -0.0686741 -0.580128 
500 0.413454 0.256311 0.168649 0.718996 -3.49945 -1.2659 -0.206177 0.72116 
499 0.469104 0.210221 0.170766 4.91368 -3.49181 -0.193581 -0.0437323 -0.566937 
498 0.464526 0.2593 0.121491 1.03545 -3.47903 0.673263 0.121363 0.790822 
501 0.505586 0.204122 0.114765 4.79492 -3.48145 0.764112 0.169384 -0.0195992 
503 0.563838 0.202544 0.163233 4.98801 -3.49208 -0.430757 0.292509 -0.0333149 
502 0.561213 0.253365 0.118031 5.50404 -3.50656 0.257993 -0.112326 0.195938 
504 0.520853 0.259204 0.172671 4.53355 -3.45335 -0.609479 -0.245906 -0.102239 
505 0.609296 0.200585 0.109602 4.77796 -3.51044 -0.574831 0.611205 -0.087007 
507 0.654041 0.204451 0.160677 4.89 -3.49823 -0.0154479 -0.713586 0.10621 
506 0.658226 0.250293 0.115082 0.187535 -3.48818 -0.333512 0.392806 -0.142829 
508 0.610811 0.25456 0.169159 5.13976 -3.50765 -0.111773 0.0531065 0.000773332 
509 0.702664 0.202002 0.107849 5.3456 -3.49991 0.419453 -0.163924 -0.431041 
511 0.751037 0.198593 0.158211 0.590935 -3.5074 -0.0126645 0.709728 -0.833711 
512 0.704956 0.250113 0.164715 0.349354 -3.50389 0.373815 0.493071 0.0741109 
510 0.754832 0.25128 0.112463 0.289775 -3.48761 -0.976592 -0.820923 -0.231399 
516 0.800136 0.250024 0.160846 0.323952 -3.46554 0.843684 1.32178 -0.368031 
513 0.800529 0.201932 0.106529 4.82473 -3.48033 -0.309312 -0.464508 -0.671675 
515 0.850003 0.201573 0.15189 5.20486 -3.47902 -0.178399 -0.519913 0.467446 
517 0.893157 0.199026 0.0986162 0.19143 -3.51484 -0.0549644 -0.0632186 -0.212929 
520 0.899397 0.250795 0.157697 5.26712 -3.50257 -0.158409 -0.131383 0.0909452 
514 0.848372 0.250595 0.109742 4.9669 -3.4941 0.219027 0.10393 -0.543821 
481 0.986737 0.195118 0.0943803 0.653783 -3.487 -0.318581 0.321999 0.821875 