ITEM: TIMESTEP
500
ITEM: NUMBER OF ATOMS
4000
ITEM: BOX BOUNDS pp pp pp
8.0945431340641949e-01 3.5290545686593610e+01
-4.2779933572267836e-01 3.6527799335722747e+01
-4.3991354374553993e-01 3.6539913543745541e+01
ITEM: ATOMS id xs ys zs c_csym c_peratom fx fy fz 
3 0.0514436 0.999114 0.053576 0.325411 -3.52278 0.307418 0.0192049 -0.356833 
5 0.102986 -0.00158535 0.00165783 0.14404 -3.5148 -0.4269 -0.0973739 0.172569 
7 0.148553 -0.00188984 0.0519298 0.174831 -3.51128 0.380852 0.118638 0.143646 
8 0.102572 0.048721 0.0528227 0.231011 -3.51189 -0.239448 -0.136264 -0.308557 
12 0.195898 0.048263 0.0512973 0.33111 -3.52381 0.580716 0.201154 -0.0362649 
11 0.247286 -0.00133292 0.05028 0.153942 -3.51239 0.195389 -0.137211 0.228924 
10 0.246775 0.0461078 0.000391784 0.369523 -3.48874 0.25394 0.772994 0.134091 
16 0.296735 0.0465624 0.0480248 0.339478 -3.51522 0.298138 0.593649 0.501522 
14 0.348538 0.0478749 -0.00148044 0.136937 -3.51659 0.111204 0.0808526 0.157488 
15 0.346103 -0.00219648 0.049345 0.505655 -3.49747 0.880688 0.684265 -0.0939716 
20 0.40324 0.0457823 0.0496598 0.751681 -3.4902 -1.03093 1.24931 0.213417 
18 0.450696 0.0470048 -0.00126743 0.363196 -3.51939 0.0594631 0.00683923 0.207108 
19 0.449898 1.00133 0.0533978 0.282498 -3.4674 0.294934 -0.366184 -1.03061 
24 0.498763 0.0522364 0.0525177 0.588283 -3.48388 0.050492 -1.27393 -0.373602 
22 0.548152 0.0495991 -0.000212211 0.365305 -3.48902 0.379201 -1.13555 0.0787462 
23 0.555159 -0.00187335 0.0511843 1.0643 -3.45063 -1.55121 0.13922 -0.683764 
28 0.597015 0.0476635 0.0502023 0.564704 -3.48279 0.877892 0.779281 0.123245 
32 0.702573 0.0496367 0.0485907 0.229789 -3.48618 -0.226587 0.515257 0.733177 
31 0.748958 1.00377 0.0467902 1.20929 -3.45981 1.0816 -1.57481 0.805152 
36 0.803089 0.0497486 0.0498378 0.205588 -3.51029 -0.418757 -0.0688726 0.150268 
40 0.902325 0.0499706 0.0503317 0.187298 -3.51143 0.457981 -0.433252 -0.402863 
4 1.00091 0.0511055 0.0477812 0.564935 -3.50789 -0.0570084 -0.417616 0.444233 
39 0.951416 -0.000274039 0.0519499 0.184411 -3.52189 0.0932524 0.25387 0.00106311 
43 0.0517209 0.0987277 0.0506388 0.199121 -3.50992 -0.178946 0.703299 -0.165225 
44 0.00209384 0.149813 0.0497245 0.183024 -3.52085 -0.156978 -0.178195 0.170357 
45 0.101522 0.0956013 0.000372755 0.483704 -3.4961 -0.120444 1.15678 -0.183371 
47 0.151164 0.101453 0.0509645 0.361136 -3.52384 -0.335652 -0.565464 -0.262338 
48 0.098974 0.147976 0.0493705 0.305194 -3.50449 -0.225302 1.04677 0.0391647 
49 0.197061 0.0977094 -0.000210477 0.376726 -3.49608 0.675198 0.517963 0.584672 
52 0.198461 0.15149 0.0483778 0.356102 -3.51824 0.533741 -0.471834 -0.0343026 
51 0.247466 0.0999319 0.0480104 0.383287 -3.51328 0.243968 -0.249155 0.405037 
50 0.252997 0.147391 1.00108 0.404797 -3.52006 -0.48496 0.438386 -0.2533 
53 0.301708 0.0983192 1.0004 0.27822 -3.49421 -0.0909127 -0.801558 -0.214207 
56 0.30285 0.148117 0.0502198 0.21321 -3.5204 -0.148861 0.176059 0.300173 
55 0.35033 0.0958017 0.0505212 0.24974 -3.52356 0.120799 -0.0159565 0.00982506 
57 0.399073 0.0975401 -0.00190039 0.144633 -3.52284 0.152867 -0.0386222 0.357172 
60 0.401463 0.147912 0.0485692 0.133166 -3.50701 -0.134498 -0.0997352 -0.362609 
58 0.450304 0.149617 0.99703 0.309117 -3.52089 -0.174983 -0.0266683 0.140153 
59 0.449145 0.0987779 0.0479324 0.193953 -3.51258 -0.120122 -0.371541 1.27656e-05 
63 0.548214 0.0979926 0.050725 0.201018 -3.50343 0.53995 0.310028 -0.40576 
64 0.497744 0.146041 0.0475641 0.419087 -3.51874 0.294557 0.0580442 -0.187867 
66 0.648039 0.145824 -0.000614297 0.661985 -3.45684 1.26882 0.289003 0.372625 
67 0.647306 0.0953 0.0486357 1.02761 -3.48714 0.629896 0.807366 0.389374 
68 0.598018 0.149974 0.0509754 0.744321 -3.50441 0.496433 -0.457988 -0.416504 
72 0.700138 0.146944 0.0471528 0.517154 -3.46163 -0.122082 1.13139 0.703325 
71 0.751918 0.103697 0.0494755 0.77056 -3.45811 0.457555 -2.26897 0.447178 
76 0.800667 0.15036 0.0478029 0.198685 -3.49736 0.581233 -0.348325 0.578665 
74 0.849663 0.146859 -0.00347219 0.670435 -3.5 0.775737 0.307788 0.812393 
75 0.852761 0.0973299 0.0475215 0.343558 -3.50868 -0.244739 0.91292 0.314261 
80 0.902281 0.15154 0.0480953 0.52628 -3.50284 -0.583529 -0.967658 0.013153 
79 0.95275 0.0984048 0.0508251 0.316993 -3.51146 -0.441581 0.464671 -0.487726 
83 0.0487346 0.202305 0.0511023 0.432382 -3.50841 1.02687 -1.24448 -0.313942 
87 0.147785 0.198939 0.0482105 0.312618 -3.5091 0.121501 0.320825 0.477612 
91 0.25192 0.199338 0.0485397 0.274411 -3.51195 -0.333096 0.0591017 0.426845 
92 0.20028 0.251355 0.0518149 0.278677 -3.51097 -0.174288 -0.473378 -0.241419 
96 0.302423 0.247967 0.0521262 0.594189 -3.49902 -0.625885 0.464275 -0.247367 
95 0.352767 0.199663 0.0491593 0.289974 -3.4906 -1.00376 -0.440299 0.0816427 
94 0.350618 0.250296 -0.000682836 0.17704 -3.51464 0.154833 -0.403599 0.239354 
100 0.403687 0.251783 0.052514 1.06856 -3.47267 -0.556631 -0.863375 -0.805303 
99 0.452225 0.19887 0.0518985 0.580845 -3.49042 -0.198241 -0.384889 -1.06905 
98 0.450646 0.246786 1.00011 0.288414 -3.53059 -0.112282 0.117854 -0.0729071 
103 0.547987 0.195401 0.0433708 1.4812 -3.46486 0.372635 0.330723 0.787149 
102 0.550357 0.247304 1.00132 0.322121 -3.51129 -0.133046 0.113605 -0.485574 
107 0.651752 0.197792 0.0493879 0.330516 -3.51196 -0.529204 0.152653 -0.39309 
108 0.597231 0.24684 0.0508231 0.574441 -3.49951 0.444381 -0.360745 -0.134675 
109 0.700536 0.200744 -0.00290595 0.414801 -3.49702 -0.104995 -0.942508 0.39403 
111 0.752229 0.200525 0.050592 0.382795 -3.51606 -0.386715 -0.306684 -0.385409 
115 0.849314 0.198715 0.0487766 0.178474 -3.50525 0.768964 0.701641 -0.171905 
120 0.899187 0.250187 0.0500029 0.0767518 -3.50569 -0.179873 -0.108911 -0.053192 
119 0.951251 0.200726 0.0513532 0.271249 -3.50558 -0.404223 0.325848 -0.573678 
84 0.000726781 0.250303 0.0489196 0.114256 -3.50172 -0.244356 -0.0359932 1.13738 
123 0.0499322 0.300895 0.0475391 0.235927 -3.50065 -0.307159 0.213345 0.898656 
88 0.0982584 0.250198 0.0473317 0.32389 -3.50959 0.499595 -0.0266267 0.691644 
125 0.0993169 0.298306 -0.000249237 0.256211 -3.49698 0.00815915 0.765761 -0.217637 
127 0.149314 0.299962 0.0497637 0.094321 -3.52463 -0.211911 -0.090313 0.065265 
129 0.199389 0.300659 -0.000433825 0.206037 -3.52048 -0.408847 -0.161529 0.196508 
131 0.247814 0.301606 0.0495643 0.19746 -3.50373 0.0498987 -0.569191 0.25867 
135 0.352295 0.296554 0.0497608 0.567711 -3.50512 -0.620389 0.400215 0.294963 
137 0.400366 0.298703 -0.0001289 0.222642 -3.52442 0.0715882 0.0275319 -0.19973 
139 0.448127 0.298953 0.0488731 0.398003 -3.49741 0.637924 0.684211 0.185337 
104 0.497406 0.24777 0.0505925 0.470737 -3.47698 0.929095 0.972608 -0.169131 
143 0.551067 0.297411 0.0478461 0.427688 -3.51618 -0.378029 0.170344 0.473671 
106 0.651114 0.247102 -0.00356147 0.424163 -3.46085 -0.325443 0.576666 1.50941 
147 0.648592 0.298486 0.049886 0.399977 -3.49434 -0.129091 -0.697937 -0.820255 
112 0.697726 0.24716 0.0470212 0.60434 -3.50554 0.581718 0.135846 0.278292 
149 0.70261 0.298271 -7.90179e-05 0.236099 -3.49753 -0.603792 -0.372793 -0.238347 
110 0.749428 0.249657 0.000776227 0.296496 -3.51084 0.672818 -0.133335 -0.518364 
116 0.801189 0.249404 0.0471108 0.464012 -3.48674 -0.643543 0.71576 0.725893 
151 0.748945 0.298623 0.0508368 0.201956 -3.5128 0.488436 -0.285008 0.0323332 
155 0.845752 0.300717 0.0508894 0.626013 -3.50434 1.03438 0.0215017 0.0739632 
159 0.949738 0.299375 0.0490038 0.189845 -3.52126 0.324999 0.01813 0.350905 
122 0.0516157 0.351564 -3.38331e-05 0.234868 -3.46898 0.0608794 0.224933 -0.435414 
163 0.0468441 0.402624 0.054463 1.15341 -3.48782 0.365703 -0.547898 -1.13873 
128 0.0970754 0.351317 0.048731 0.211329 -3.50481 0.143826 -0.418153 0.436945 
167 0.144888 0.400798 0.050114 0.454217 -3.50183 0.711001 0.635335 -0.107366 
132 0.196865 0.350046 0.0487108 0.174273 -3.52714 0.182832 -0.0266118 0.196916 
136 0.297441 0.348089 0.0495842 0.238093 -3.51088 0.685414 0.0601322 -0.234107 
171 0.248309 0.398661 0.0472389 0.282813 -3.51811 0.608139 -0.13934 0.264486 
134 0.348682 0.345393 0.997012 0.419991 -3.51705 0.261431 0.406038 0.269361 
140 0.39624 0.348809 0.0499539 0.550379 -3.49636 0.889178 0.0547198 -0.279555 
175 0.349225 0.396577 0.0503719 0.335731 -3.48474 0.303316 0.74084 -0.0374146 
177 0.397722 0.397938 -0.00293145 0.471425 -3.45722 -0.271101 -0.667709 0.563919 
179 0.451749 0.397995 0.0519766 0.559356 -3.47708 -0.534898 0.00466227 -1.48078 
144 0.502928 0.3506 0.0483493 0.416016 -3.48253 -0.425008 -0.250485 0.345955 
142 0.546062 0.350849 0.00060315 0.706345 -3.48105 0.460974 -0.376831 -0.563497 
181 0.497283 0.401931 -0.00179961 0.6111 -3.52243 -0.131353 -0.525931 0.154726 
183 0.551011 0.403443 0.0482145 0.606363 -3.50677 -1.03944 -1.39607 0.697045 
146 0.653644 0.346871 0.998788 0.552213 -3.50687 -0.747565 0.028789 0.120274 
148 0.598114 0.349538 0.0480289 0.273237 -3.51784 0.124061 -0.341436 0.120429 
185 0.599411 0.397396 1.00089 0.390294 -3.49517 0.273557 1.2327 0.101111 
187 0.648165 0.398166 0.0485677 0.212569 -3.50484 0.598462 -0.707346 0.444219 
152 0.698559 0.345097 0.0476944 0.391815 -3.49195 0.355326 0.720832 0.415668 
189 0.696917 0.398339 0.00156543 0.406265 -3.50939 0.489844 -0.066847 -0.523034 
150 0.749763 0.346228 0.00146451 0.339653 -3.50145 0.0889432 0.632931 -0.140582 
191 0.749229 0.39628 0.0471801 0.445321 -3.50123 -0.142846 0.368898 0.371849 
156 0.799201 0.348914 0.0523402 0.25967 -3.50374 0.294041 0.158077 -0.0582841 
193 0.799063 0.396912 0.00211687 0.521071 -3.50787 0.200033 0.641403 -0.232676 
154 0.851728 0.352266 0.00147566 0.361358 -3.47781 -0.837655 -0.244779 -0.733169 
160 0.902409 0.347982 0.0497012 0.561522 -3.48116 -0.879128 1.07149 0.552157 
195 0.85154 0.40166 0.0501146 0.222104 -3.50014 -0.152137 -0.807883 -0.0822988 
197 0.902411 0.397551 -0.00094889 0.196965 -3.51537 0.101664 0.534917 0.031182 
124 -0.000878165 0.349839 0.0487106 0.20898 -3.51876 0.0649755 0.141273 0.711469 
199 0.950219 0.400001 0.0505233 0.11516 -3.52524 0.106467 -0.129822 -0.323118 
162 0.047192 0.447339 -0.00139904 0.845289 -3.49536 0.381856 0.614984 0.50361 
166 0.150404 0.452399 0.00130061 0.37236 -3.48766 0.0699657 -0.828136 -0.32686 
168 0.0973226 0.453569 0.0498769 0.646536 -3.49234 0.498468 -0.432454 -0.174711 
172 0.202998 0.450901 0.0508809 0.465917 -3.4751 -0.561134 -0.868596 -0.674155 
211 0.251978 0.499615 0.0509217 0.308152 -3.50351 0.159693 0.315098 -0.559234 
170 0.250711 0.447973 0.000391591 0.058737 -3.52333 -0.101282 0.200539 -0.034962 
176 0.301865 0.447733 0.0478857 0.455436 -3.47425 -0.0826473 0.314227 -0.0564333 
174 0.351255 0.447449 0.998046 0.255598 -3.50423 -0.21382 0.309881 0.441148 
180 0.400755 0.446185 0.0508875 0.526705 -3.47906 -1.09397 1.3768 -0.313996 
178 0.44415 0.449718 -0.000156795 0.619328 -3.49568 1.2502 -1.00374 -0.115297 
182 0.548241 0.447969 -0.00493335 0.905621 -3.4621 0.796904 0.580704 1.19562 
184 0.501051 0.449617 0.050088 0.515937 -3.49846 -0.595723 0.0539109 -0.692243 
221 0.495386 0.499559 -0.00285484 0.349647 -3.49559 0.726527 0.141541 0.391559 
223 0.547822 0.498169 0.0473906 0.562513 -3.4684 0.330037 0.919659 0.0193008 
186 0.64873 0.450155 0.000950887 0.272113 -3.51704 0.0992733 0.100863 -0.280417 
188 0.602088 0.448492 0.0529749 0.851438 -3.41695 -0.449762 0.432763 -2.4883 
227 0.650032 0.499167 0.0513031 0.221262 -3.51518 -0.0155475 0.128798 -0.617261 
192 0.69722 0.44624 0.0488508 0.390469 -3.50875 0.216272 0.801801 -0.079882 
229 0.703198 0.499407 0.999154 0.464736 -3.48218 -1.02092 -0.0790389 0.332806 
196 0.800152 0.451473 0.0501972 0.43352 -3.5181 0.0126976 -0.612675 -0.0602035 
194 0.850276 0.447092 -0.000542767 0.32037 -3.51534 0.319482 0.174859 0.181117 
200 0.898866 0.451622 0.049278 0.374913 -3.49679 0.531899 -0.0846339 -0.80713 
164 0.998025 0.450126 0.0502193 0.205972 -3.4961 0.232792 -0.35362 -0.629898 
203 0.0468598 0.498042 0.0506976 0.525268 -3.48751 0.422046 0.510875 -0.157853 
204 0.00139905 0.549362 0.0519948 0.38454 -3.51038 -0.566435 0.100887 -0.553917 
206 0.14929 0.551032 1.00222 0.205712 -3.50865 0.591617 -0.325562 -0.529514 
207 0.155087 0.49604 0.0483425 1.63714 -3.45698 -1.31097 1.05881 1.11374 
208 0.100933 0.548323 0.0498579 0.162835 -3.48553 -0.223538 -0.446806 -0.276215 
212 0.200608 0.550354 0.0503434 0.261871 -3.49945 0.594137 0.132093 -0.617397 
210 0.250809 0.552304 -0.00222184 0.427581 -3.50046 -0.351893 -0.432631 1.26498 
216 0.29951 0.551022 0.048722 0.351992 -3.4973 -0.0923702 0.188172 1.11064 
214 0.347669 0.548313 0.999224 0.343306 -3.50785 0.743205 1.26367 0.207001 
215 0.348332 0.50001 0.0506226 0.276327 -3.51009 0.591551 -0.329287 -0.214315 
217 0.395867 0.499406 -0.00122808 0.224825 -3.49135 -0.0279436 -0.117557 0.648287 
220 0.398666 0.551099 0.049688 0.0868102 -3.50762 -0.137892 0.00447491 -0.407661 
218 0.443681 0.551149 0.997524 0.927749 -3.49914 0.700957 -0.0273691 0.173142 
219 0.448761 0.501987 0.045652 0.505546 -3.51039 -0.154725 -0.545174 0.68585 
224 0.500373 0.552103 0.0459601 0.331515 -3.48846 -0.153359 -0.806655 0.681293 
222 0.552068 0.550224 -0.00236129 0.385813 -3.5046 -0.465763 -0.480307 0.100186 
228 0.601603 0.552799 0.0476755 0.383112 -3.49097 -0.287122 -1.00166 0.396479 
232 0.698362 0.550372 0.0476217 0.303326 -3.51348 0.476141 -0.0894378 -0.19589 
230 0.753785 0.551505 0.996086 0.743169 -3.50707 -0.2005 -0.396779 0.594871 
231 0.748478 0.5001 0.0474741 0.353154 -3.49026 0.257837 -0.303569 0.529704 
233 0.801318 0.495268 1.00033 0.717169 -3.52021 -0.224698 0.804506 -0.409203 
236 0.800719 0.546976 0.0497576 0.370559 -3.50634 -0.398351 0.63257 -0.40957 
235 0.850715 0.500976 0.0491568 0.185551 -3.51029 0.0274971 -0.446361 -0.413325 
240 0.901141 0.549407 0.0477549 0.381163 -3.49462 0.140673 0.0865731 0.310803 
239 0.95169 0.49681 0.0514433 0.607549 -3.50767 -0.546434 0.601541 0.0122814 
242 0.0502695 0.647668 0.997307 0.604316 -3.48521 -0.104079 1.00147 0.944738 
243 0.0484374 0.601617 0.0501146 0.434659 -3.51567 0.231972 0.099548 -0.150146 
244 0.996371 0.652454 0.0489733 0.626463 -3.50266 0.84306 -0.755578 0.671529 
246 0.151713 0.650657 1.00057 0.232393 -3.51272 -0.446347 -0.291081 0.0444994 
247 0.151371 0.597715 0.051097 0.278897 -3.51497 0.0580336 0.66201 -0.201216 
248 0.103324 0.648832 0.0515851 0.519121 -3.49102 -0.974629 -0.114357 -0.341537 
252 0.200358 0.650571 0.0491151 0.178826 -3.51725 0.291645 0.0567241 0.553073 
250 0.250884 0.651244 0.999891 0.105929 -3.50619 0.180031 -0.0303342 0.0818543 
251 0.253517 0.602397 0.0505224 0.377816 -3.49769 -0.593524 -0.751732 -0.0293329 
253 0.300425 0.600831 1.00216 0.350326 -3.50847 0.275758 0.258895 -0.563188 
256 0.300297 0.65145 0.0519764 0.111088 -3.52421 -0.0298985 0.154491 -0.216971 
254 0.347312 0.649712 0.00118611 0.320182 -3.497 0.0173032 0.513808 -0.592893 
255 0.34922 0.598785 0.0521997 0.379052 -3.50676 0.431533 0.27009 -0.958274 
257 0.397507 0.603121 -0.00258452 0.529067 -3.5055 0.0730489 -0.589133 0.623535 
260 0.398305 0.65085 0.048647 0.17336 -3.52933 0.0917245 -0.030463 0.173323 
258 0.450759 0.649941 1.00095 0.263904 -3.52133 0.233018 0.161521 -0.140077 
259 0.449584 0.602706 0.049794 0.290835 -3.52621 -0.237455 -0.363443 -0.227094 
261 0.499963 0.596586 0.000572375 0.897843 -3.49896 -0.442035 0.9171 -0.91001 
262 0.545744 0.651281 0.999834 0.91132 -3.48904 1.20623 -0.522129 -0.0342633 
263 0.551789 0.598451 0.0453911 0.461262 -3.50252 -0.0403292 0.637304 0.589995 
264 0.501618 0.650372 0.0494579 0.304424 -3.48645 -0.536113 0.951804 -0.0781006 
266 0.652734 0.654226 0.996538 0.698737 -3.50537 -0.0975296 -0.658684 0.645115 
267 0.651923 0.599941 0.0439216 0.703944 -3.50129 -0.296827 0.511802 0.725244 
268 0.599176 0.648524 0.0476847 0.41387 -3.50702 0.322175 0.388929 -0.0296419 
272 0.706412 0.649973 0.050767 0.911057 -3.47488 -1.81419 0.0137309 0.490426 
271 0.751132 0.598792 0.0460123 0.352581 -3.52509 -0.027926 -0.306654 0.258647 
276 0.801046 0.647098 0.0484207 0.592032 -3.4734 -0.0719709 1.54632 0.114117 
275 0.851053 0.593636 0.0539897 2.15469 -3.4373 -0.0595486 1.22946 -1.28985 
280 0.897563 0.649582 0.0524588 0.443685 -3.46981 -0.120634 -0.878421 -1.42468 
278 0.948667 0.648675 1.00178 0.464863 -3.46716 -0.371567 0.836107 -0.237725 
279 0.948605 0.600643 0.047676 0.364702 -3.52185 0.123972 -0.347333 0.473083 
283 0.0499579 0.698558 0.0472742 0.621686 -3.49938 -0.106959 0.167092 0.759451 
285 0.100678 0.699402 1.00077 0.149264 -3.516 -0.426102 0.0703456 -0.0868721 
287 0.148881 0.696706 0.0506247 0.266041 -3.49991 0.0834994 0.587912 0.13371 
289 0.200713 0.699372 1.00074 0.134027 -3.51183 0.199598 0.356661 -0.218714 
291 0.252209 0.701803 0.0514217 0.277175 -3.52372 -0.314054 -0.410919 -0.138255 
295 0.350484 0.701499 0.051531 0.175533 -3.52274 -0.00790909 -0.0137241 -0.326803 
297 0.399151 0.699722 0.000530934 0.188208 -3.52869 -0.0340342 0.20957 -0.0851795 
299 0.450082 0.702447 0.0490023 0.156703 -3.52067 -0.00667372 -0.457605 -0.175422 
301 0.500786 0.703864 0.999233 0.51092 -3.49006 -0.706881 -1.17386 0.656309 
303 0.550399 0.705429 0.0478544 0.761615 -3.4701 -0.0592173 -1.42218 0.571434 
305 0.601079 0.699731 0.997685 0.331628 -3.51103 -0.568701 0.136514 0.527486 
307 0.649879 0.699465 0.0500909 0.240684 -3.50043 0.637059 -0.163964 -0.383141 
308 0.598148 0.750763 0.0492057 0.402585 -3.4974 0.627038 0.112546 -0.281181 
309 0.70273 0.702204 1.00053 0.366588 -3.51429 -0.455524 -0.331074 -0.369489 
311 0.748857 0.70096 0.0530018 0.654319 -3.4761 2.01511 0.209449 -1.81718 
313 0.800214 0.703987 1.00166 0.591458 -3.46648 -0.63134 -0.676742 0.400794 
315 0.851074 0.69966 0.0492779 0.3845 -3.46724 -0.718634 0.465401 1.525 
317 0.898802 0.700943 1.00392 0.560858 -3.49592 0.608024 -0.306937 -0.779346 
319 0.947746 0.700507 0.052605 0.200513 -3.50327 0.125041 -0.372213 -0.438644 
323 0.0484011 0.79691 0.0516489 0.137687 -3.50746 -0.104758 0.229585 0.303534 
288 0.0973612 0.749956 0.0504739 0.447499 -3.50727 0.416752 -0.534402 0.470519 
325 0.101599 0.797929 1.00338 0.518015 -3.51316 -0.64768 0.0934065 -0.393268 
327 0.147416 0.797508 0.0530169 0.271121 -3.52106 0.456911 0.174429 0.187586 
292 0.198315 0.745242 0.0532613 0.729733 -3.47674 0.881171 1.25146 -0.592779 
290 0.252278 0.750605 1.00078 0.301194 -3.51132 -1.05977 0.0683046 0.130971 
296 0.300615 0.751636 0.0507853 0.112553 -3.49582 0.0943901 -0.763219 -0.29511 
331 0.252852 0.798994 0.0513442 0.384718 -3.49287 -0.637681 0.0181078 -0.305562 
300 0.401328 0.753411 0.0503648 0.49063 -3.52225 -0.787586 -0.496945 -0.703842 
335 0.349032 0.800705 0.050681 0.172745 -3.50919 0.440594 0.171878 0.0770387 
298 0.449784 0.74995 -0.000645216 0.155492 -3.52466 -0.123921 0.0470677 0.140339 
339 0.447204 0.802653 0.0482826 0.440917 -3.48182 1.09839 -0.780352 1.17364 
304 0.500761 0.750144 0.0503901 0.332025 -3.50931 -0.683292 0.518341 0.01153 
302 0.548287 0.750741 0.999059 0.211503 -3.49224 0.914289 0.100004 -0.187508 
341 0.497861 0.800668 1.00141 0.423041 -3.51019 -0.125743 -0.217988 -0.679842 
343 0.549793 0.79884 0.0459601 0.459701 -3.47641 -0.353746 0.666887 1.00137 
306 0.648753 0.747671 -0.000151079 0.311688 -3.52247 0.229539 0.362223 -0.160818 
345 0.601101 0.801239 0.995006 0.763598 -3.50162 -0.335019 -0.460397 0.970063 
347 0.653782 0.79647 0.0475711 0.752374 -3.47117 -1.91716 1.19298 1.12759 
312 0.698607 0.750212 0.050451 0.174057 -3.46233 0.881756 -0.180528 -0.903237 
349 0.699405 0.799799 0.997461 0.42201 -3.47956 0.794705 -1.13269 0.149722 
310 0.749623 0.75265 1.00032 0.23979 -3.50345 -0.0784919 -0.199386 -0.090469 
316 0.800237 0.750673 0.0512232 0.127964 -3.52545 -0.0344281 -0.0761308 0.275781 
351 0.749992 0.798806 0.0507266 0.167964 -3.5264 0.0286453 0.0580718 0.0800203 
314 0.847564 0.749716 1.00087 0.268584 -3.48655 0.773909 0.462863 0.00141356 
320 0.900635 0.749203 0.0558872 0.603124 -3.49776 -0.221732 0.322306 -0.701644 
355 0.850123 0.800408 0.0532052 0.245965 -3.50073 0.284368 -0.61545 -0.451632 
357 0.900784 0.795344 0.999511 0.71272 -3.49645 -0.264859 0.566186 0.408549 
284 0.996663 0.747858 0.0495225 0.502002 -3.49511 0.505416 -0.0291802 0.958528 
359 0.948565 0.795971 0.0531661 0.31412 -3.50461 0.242045 0.77445 -0.153791 
363 0.047542 0.896233 0.0514975 0.570519 -3.51352 0.521772 0.50145 -0.096009 
328 0.0988628 0.848941 0.0524257 0.109865 -3.52616 0.0192627 -0.0493113 -0.101486 
365 0.0996555 0.899564 1.00265 0.291268 -3.48499 -0.492754 -0.333286 -1.33331 
367 0.149857 0.898663 0.0528975 0.183828 -3.50629 -0.0159375 -0.497842 -0.403827 
332 0.200186 0.847057 0.0515153 0.222148 -3.49088 -0.521063 0.615539 -0.241264 
369 0.198384 0.899338 -0.00251637 0.461241 -3.4926 -0.267716 -0.488988 1.25674 
371 0.248816 0.898902 0.0491526 0.162599 -3.49598 -0.116539 0.441015 0.334016 
330 0.250251 0.853245 0.00238476 0.462693 -3.49676 0.0142224 -1.2896 -0.491153 
336 0.298567 0.850915 0.0512718 0.252935 -3.48653 0.800563 0.266703 0.110646 
334 0.350621 0.847949 1.00337 0.857485 -3.48085 -0.398877 1.26918 -0.542699 
340 0.400986 0.852168 0.0504561 0.161886 -3.49956 0.118873 -0.57389 -0.473342 
375 0.354312 0.903946 0.050033 0.870048 -3.44903 -1.2046 -1.41862 0.782169 
377 0.398437 0.902702 1.00101 0.284234 -3.4903 0.525499 -0.318049 -0.178775 
379 0.451351 0.901578 0.0536771 0.280543 -3.52082 -0.386715 0.279388 -0.286998 
344 0.50048 0.85203 0.0505678 0.203626 -3.52308 -0.170214 -0.330568 -0.119291 
383 0.552208 0.899996 0.0489427 0.415737 -3.48447 -0.709433 0.42154 0.298344 
348 0.599014 0.846152 0.0490207 0.552471 -3.49672 0.451542 0.839028 -0.248023 
385 0.602246 0.895579 0.998644 0.510732 -3.51297 -0.454936 0.614513 0.240056 
387 0.648675 0.89871 0.0504449 0.282625 -3.51619 0.448362 -0.0594394 -0.238284 
352 0.699337 0.846136 0.046991 0.673789 -3.46319 0.735469 1.08899 0.803321 
350 0.753066 0.848843 0.00292331 0.552999 -3.51558 -0.143371 0.155234 -0.620189 
356 0.802746 0.846568 0.052616 0.412594 -3.50851 -0.304741 0.383935 -0.167782 
391 0.750208 0.899013 0.0520516 0.303352 -3.5054 0.339238 0.397133 -0.409469 
360 0.899115 0.848133 0.0497609 0.314369 -3.4987 0.352901 -0.129107 0.710788 
395 0.850691 0.900191 0.049711 0.492643 -3.48847 0.305732 -0.499343 0.87897 
397 0.903968 0.899378 1.00009 0.385573 -3.51487 -0.467136 0.0931813 0.292429 
324 1.00049 0.848289 0.051111 0.112669 -3.50048 -0.155014 -0.385951 0.441603 
361 0.00245037 0.898179 0.998364 0.438866 -3.51899 -0.28675 0.137796 0.549867 
358 0.950751 0.848769 1.0017 0.187995 -3.50367 0.257374 -0.822577 0.406812 
399 0.952433 0.897379 0.0510132 0.225677 -3.50877 -0.351837 0.134438 -0.0121125 
362 0.0511059 0.949678 1.00218 0.186648 -3.49755 0.608296 -0.551906 -0.318642 
368 0.103253 0.947808 0.0505373 0.365904 -3.50772 -0.559711 0.00821791 0.323158 
9 0.200968 -0.00195756 0.000995381 0.239757 -3.50986 -0.490177 -0.31199 -0.243909 
372 0.199131 0.949065 0.0501338 0.150702 -3.51738 0.00487124 -0.474873 -0.0286027 
370 0.25138 0.947498 1.0001 0.363031 -3.51834 -0.298324 0.243344 0.020629 
13 0.296562 0.999722 0.999044 0.304875 -3.52069 0.199994 -0.363483 -0.0747496 
376 0.301412 0.951587 0.0521188 0.530598 -3.48918 -0.469101 -0.81773 -0.430746 
374 0.351407 0.951275 1.0001 0.230379 -3.50273 -0.40933 -0.189796 -0.0548248 
380 0.399552 0.951004 0.0507763 0.140684 -3.50234 0.269471 0.527261 0.16657 
384 0.499135 0.952751 0.0510494 0.383096 -3.51772 0.552456 -0.595515 0.381325 
27 0.651654 -0.00124565 0.0501716 0.122727 -3.51247 0.126727 0.123167 -0.181093 
388 0.600288 0.947986 0.0495648 0.17359 -3.4952 0.145535 0.165901 -0.50094 
392 0.702779 0.948601 0.045816 0.710459 -3.50146 -0.361449 0.359638 0.920477 
396 0.802165 0.951317 0.0533244 0.662724 -3.49961 -0.831245 -0.354416 -0.638697 
35 0.854617 0.0002357 0.0474398 1.00616 -3.49425 -1.11396 -0.459556 1.28928 
37 0.901459 0.995935 0.00211298 0.630088 -3.45669 0.233058 1.50458 -0.378647 
400 0.901624 0.94973 0.0532718 0.431839 -3.51899 -0.148028 -0.467761 -0.105802 
364 0.000461924 0.948898 0.0485941 0.331135 -3.51494 0.298488 -0.430482 0.548645 
398 0.9502 0.950589 1.00176 0.350427 -3.49859 0.376798 -0.50673 -0.165577 
402 0.0527214 0.0503266 0.0991008 0.406563 -3.50677 -0.260895 -0.232629 0.647862 
403 0.0526519 0.997119 0.151465 0.520045 -3.51459 -0.472938 0.509556 -0.231187 
405 0.103641 -0.00331156 0.102795 0.478927 -3.50372 -0.300164 0.749582 0.0639651 
406 0.149669 0.0521541 0.101441 0.289784 -3.50456 -0.0108197 -0.448141 0.129129 
408 0.0987294 0.0515769 0.153927 0.592628 -3.51038 0.2059 -0.290659 -0.791513 
412 0.200875 0.0496251 0.149578 0.1246 -3.49277 -0.255569 0.238475 0.0110612 
410 0.249121 0.0505763 0.100571 0.232793 -3.52203 0.0858826 -0.283527 -0.291537 
411 0.253518 0.997364 0.148875 0.634189 -3.46667 -1.03803 0.628684 0.497158 
416 0.300429 0.0468028 0.151471 0.385249 -3.52076 0.319181 0.617815 -0.428549 
414 0.350593 0.0462876 0.0994126 0.259878 -3.51171 -0.49948 0.614309 -0.244401 
420 0.395706 0.0469832 0.149149 1.10306 -3.47213 0.730322 1.32015 0.647257 
418 0.450246 0.0522242 0.102647 0.529003 -3.50553 0.262638 -0.885106 -0.329514 
419 0.449481 0.00411469 0.153179 0.703678 -3.47979 0.343431 -1.14668 -0.0389048 
421 0.501824 0.999518 0.102465 0.210084 -3.50282 -0.332968 0.631962 -0.303546 
424 0.503042 0.0503862 0.154 0.546872 -3.51455 -0.501278 -0.106823 -0.586523 
422 0.548 0.0491577 0.101284 0.324183 -3.51649 0.866515 0.186623 0.313041 
426 0.649447 0.0513285 0.0999303 0.421934 -3.51114 0.479568 -0.59603 -0.324059 
427 0.650764 0.998851 0.148651 0.135142 -3.52367 0.0866264 0.135915 0.109159 
428 0.602628 0.0487155 0.150987 0.231773 -3.51432 -0.552736 0.124503 -0.0670422 
432 0.700055 0.0479963 0.148612 0.241335 -3.5018 -0.349584 0.806142 0.461161 
430 0.751138 0.0500047 0.101342 0.390691 -3.5208 -0.0217522 0.263718 -0.668224 
431 0.746875 0.999259 0.149809 0.41971 -3.51351 0.786953 0.0403164 0.268605 
436 0.801184 0.0499784 0.150621 0.320303 -3.49113 -0.933806 0.417654 0.101537 
434 0.850299 0.0479681 0.100257 0.219725 -3.50497 0.276598 0.166837 -0.202355 
437 0.903818 -0.00164338 0.101935 0.717499 -3.50937 -1.37276 0.474753 -0.625654 
440 0.895233 0.0508314 0.150436 0.807396 -3.50504 0.77176 -0.266486 -0.160863 
401 1.00207 1.00093 0.0998419 0.328168 -3.50773 -0.534536 -0.0384686 0.466079 
404 0.00115796 0.0473258 0.153211 0.731908 -3.46941 0.40849 0.530254 -1.381 
438 0.951046 0.051679 0.102485 0.52012 -3.48343 -0.20156 -1.27385 -0.0771358 
442 0.0515345 0.150839 0.102447 0.465518 -3.5028 -0.0696171 -0.218735 -1.13441 
443 0.0483916 0.101242 0.149074 0.24735 -3.5169 0.128661 -0.363019 0.129611 
444 3.92862e-06 0.147901 0.148371 0.241512 -3.50465 -0.516553 0.474885 0.624785 
445 0.0999606 0.100924 0.100903 0.0744871 -3.52298 0.222667 -0.16337 0.289865 
446 0.145996 0.152289 0.0989428 0.453109 -3.50775 0.763775 -0.759745 0.481333 
447 0.149526 0.10447 0.153616 0.6981 -3.47238 -0.465329 -0.840581 -0.939388 
448 0.0995562 0.152573 0.15032 0.144266 -3.51095 -0.226314 -0.237095 0.437136 
449 0.200123 0.10166 0.0993574 0.216113 -3.50026 -0.64028 -0.368354 0.264948 
452 0.19736 0.150594 0.151602 0.310989 -3.47264 0.18191 0.218829 -0.98583 
451 0.24701 0.0991174 0.147853 0.388764 -3.51399 0.701164 0.452423 0.567359 
450 0.249444 0.149688 0.101125 0.206203 -3.51772 0.203739 0.00303206 -0.408873 
453 0.299836 0.0982989 0.10076 0.144863 -3.50877 0.0609885 0.0239459 -0.329694 
456 0.300821 0.150646 0.150376 0.250553 -3.49751 -0.285838 0.0317315 -0.272432 
454 0.354412 0.149009 0.0984515 0.432798 -3.49307 -1.28443 -0.119918 -0.116699 
455 0.348953 0.0988789 0.149423 0.114876 -3.51768 -0.103661 -0.0229397 -0.23817 
457 0.402305 0.0980057 0.0984652 0.232853 -3.50328 -0.501369 0.09871 0.487363 
460 0.400506 0.149767 0.150203 0.271083 -3.50675 0.137444 0.175071 -0.840306 
458 0.449872 0.148655 0.0963337 0.275587 -3.51289 0.098816 -0.0406245 0.814412 
459 0.452315 0.100535 0.148754 0.312869 -3.49548 -0.516463 -0.25603 0.49404 
464 0.502346 0.150364 0.148406 0.322995 -3.4752 -1.21174 -0.333315 1.18059 
461 0.499888 0.0981034 0.0993748 0.148729 -3.49728 0.0964635 0.292905 0.430707 
462 0.549231 0.148728 0.0973766 0.223594 -3.50102 0.0711449 -0.148274 0.623251 
463 0.547827 0.100262 0.151414 0.476541 -3.50278 1.23319 -0.308205 -0.450919 
465 0.602501 0.0979845 0.102152 0.558072 -3.49833 -0.716563 0.515942 -0.245626 
466 0.650861 0.150514 0.0972541 0.319157 -3.51802 -0.299737 -0.338444 0.0770053 
467 0.650794 0.100175 0.149858 0.0884093 -3.52119 0.367628 0.0256759 0.0505627 
468 0.602639 0.149947 0.149846 0.311224 -3.50857 -0.831433 -0.0371092 -0.571466 
469 0.700632 0.100416 0.097778 0.165597 -3.52545 -0.31239 -0.0670381 0.0135288 
472 0.699486 0.152269 0.145696 0.572531 -3.50402 0.40565 -0.52166 0.343229 
471 0.749384 0.102624 0.145484 0.76796 -3.50081 0.275977 -0.710792 1.01452 
470 0.753722 0.148881 0.0994617 0.398222 -3.50584 -0.398916 0.794868 -0.124964 
473 0.803724 0.0974472 0.0999565 0.502917 -3.50367 -0.305799 0.940057 -0.408876 
476 0.801377 0.150934 0.149846 0.140258 -3.51688 0.0560186 -0.377658 -0.508141 
474 0.851555 0.147834 0.099965 0.213332 -3.51179 -0.33615 0.0818295 -0.27418 
475 0.847548 0.099568 0.150554 0.434562 -3.49514 0.942105 0.117842 -0.408368 
477 0.898717 0.0976474 0.0993239 0.319308 -3.50222 0.0245001 0.403772 -0.398805 
480 0.903733 0.148803 0.148669 0.484011 -3.49469 -0.624268 -0.217546 0.604953 
441 -0.00102028 0.0974903 0.0988422 0.381924 -3.48058 0.642839 0.19296 0.566738 
478 0.947956 0.149514 0.0985192 0.329574 -3.51747 0.610478 -0.333222 -0.0295934 
479 0.947754 0.0979117 0.147164 0.563079 -3.50223 0.700388 0.305139 0.614871 
483 0.0468395 0.200489 0.149481 0.352216 -3.51308 0.409875 0.42597 0.105926 
484 -0.00170444 0.254958 0.152211 0.813542 -3.46562 0.240754 -0.799642 -0.480322 
485 0.0994538 0.200933 0.100235 0.157069 -3.49866 -0.241035 0.0823046 -0.707004 
487 0.146031 0.200172 0.151337 0.462996 -3.50926 0.803002 0.49201 -0.199443 
488 0.0979378 0.252488 0.149903 0.23394 -3.5188 0.257491 -0.367958 -0.184263 
489 0.197614 0.196502 0.0999202 0.648672 -3.51064 0.198327 0.701461 -0.149897 
491 0.245604 0.200001 0.149696 0.310667 -3.51376 0.572971 -0.0419143 -0.232579 