ITEM: TIMESTEP
1000
ITEM: NUMBER OF ATOMS
4000
ITEM: BOX BOUNDS pp pp pp
1.7168514548060825e+00 3.4383148545193947e+01
-7.7924960898779361e-01 3.6879249608987863e+01
-7.4805286002039750e-01 3.6848052860020360e+01
ITEM: ATOMS id xs ys zs c_csym c_peratom fx fy fz 
3 0.0511734 0.998836 0.0418049 0.189545 -3.49655 0.173183 0.123376 0.346188 
5 0.105833 -0.00261652 -0.00533422 0.499696 -3.49497 0.107372 0.201248 0.383001 
7 0.151314 0.998971 0.0459965 0.209593 -3.50832 0.543504 0.0429384 0.537601 
8 0.101182 0.0493569 0.0444869 0.107033 -3.50649 0.51595 -0.747289 -0.236704 
12 0.198378 0.0497899 0.0478132 0.230198 -3.50211 0.21402 0.191925 -0.0611524 
11 0.241885 0.995515 0.0515449 1.25639 -3.46712 0.452152 0.467991 0.222241 
10 0.250192 0.0506138 -0.000814419 0.245793 -3.49847 0.0352717 0.201513 0.354801 
16 0.297837 0.0467156 0.0513001 0.326347 -3.49733 0.0844548 0.126925 0.45397 
14 0.350832 0.0488188 0.00557646 0.327253 -3.49703 -0.145762 -0.167227 -1.44132 
15 0.350216 0.998281 0.0530884 0.438983 -3.48556 0.0800325 -0.748266 0.433128 
20 0.398977 0.0491448 0.0536985 0.400445 -3.50868 0.186239 -0.0668713 0.219349 
18 0.445976 0.0453341 0.00418424 0.319475 -3.4661 -0.673848 0.138161 -0.874368 
19 0.44139 0.994599 0.051594 0.882345 -3.49324 0.532353 0.237567 0.0466198 
24 0.492791 0.0442288 0.0515774 0.950381 -3.47211 0.528671 0.54018 0.695072 
22 0.549581 0.0448231 0.00239731 0.306677 -3.49127 -0.969183 0.282512 0.022018 
23 0.551795 -0.00615854 0.0515787 0.661777 -3.50372 -0.716623 0.476979 -0.400444 
28 0.598102 0.0463407 0.0513021 0.214883 -3.50605 0.824843 -0.889371 -0.574601 
32 0.69722 0.0447238 0.0503137 0.66745 -3.4971 1.04291 0.309485 -0.840396 
31 0.752174 0.99752 0.0493085 0.291857 -3.50476 -0.225629 -0.175326 -0.19136 
36 0.803013 0.04357 0.043417 0.718676 -3.48294 0.555653 0.00994944 0.732817 
40 0.900257 0.0494712 0.0419533 0.173927 -3.52252 -0.00761807 -0.456071 0.137879 
4 1.00021 0.0516246 0.0425437 0.277045 -3.51427 -0.0694091 -1.25303 0.294706 
39 0.949367 0.9985 0.0426496 0.240852 -3.46502 0.84078 0.485347 -0.166034 
43 0.0519661 0.101055 0.0423918 0.555627 -3.47821 -0.353844 -0.223533 1.56877 
44 1.00015 0.149303 0.0482677 0.232258 -3.51913 -0.483143 0.619827 -0.0700493 
45 0.105916 0.0999968 -0.00417314 0.538365 -3.46643 -0.825117 0.986051 0.37982 
47 0.148783 0.100004 0.0479895 0.243678 -3.50193 0.732409 -1.02159 -0.407793 
48 0.099752 0.150635 0.0487218 0.329635 -3.48464 0.108802 -0.258923 -0.539294 
49 0.204241 0.102999 -0.00167606 0.302448 -3.49418 -0.374554 -0.492617 0.380009 
52 0.204261 0.146863 0.0497245 0.352751 -3.45837 -1.08157 1.76057 -0.591603 
51 0.249073 0.097443 0.049404 0.222245 -3.47989 0.62366 0.548598 0.686968 
50 0.257669 0.14955 0.00069198 0.463753 -3.45419 -1.25624 0.508152 1.18332 
53 0.301579 0.0998333 0.00447564 0.148646 -3.47564 1.13509 -0.529485 -1.44022 
56 0.302996 0.147777 0.0547905 0.22797 -3.46032 -0.695721 1.04806 0.27542 
55 0.349627 0.0993031 0.0548849 0.343049 -3.47424 0.872771 0.585049 0.990007 
57 0.405219 0.0982259 0.00517539 0.568475 -3.49124 -0.430956 0.294455 -0.227612 
60 0.40523 0.15046 0.0596504 0.456148 -3.44197 -0.642332 -0.829405 0.866357 
58 0.454311 0.147691 0.00820672 0.302458 -3.44936 0.536786 -0.0394635 0.421642 
59 0.447508 0.0995279 0.060605 1.22489 -3.49836 0.872163 -0.768666 -0.680601 
63 0.549267 0.0938257 0.0548633 0.227357 -3.48592 -0.27142 -0.439105 -0.896517 
64 0.502788 0.145806 0.0569797 0.244947 -3.44243 -0.386527 -0.694784 0.703106 
66 0.652142 0.143421 1.00196 0.270703 -3.51539 -0.448783 0.503564 -0.373773 
67 0.651059 0.0962437 0.0494699 0.292121 -3.48985 -0.221518 -0.992668 0.448976 
68 0.601126 0.142581 0.0535528 0.184462 -3.49063 -0.406064 -0.345134 -0.695999 
72 0.703145 0.142406 0.0518876 0.19332 -3.49051 0.140791 -0.256155 -1.19008 
71 0.752629 0.0929556 0.0503384 0.363359 -3.49455 -0.578958 0.173971 -1.03162 
76 0.799534 0.145529 0.0491696 0.262596 -3.4844 -0.199725 -0.629141 0.0205501 
74 0.842753 0.148897 0.998294 0.506366 -3.49917 0.251539 -0.309925 -0.976172 
75 0.848068 0.0969199 0.044341 0.178648 -3.48557 0.206522 0.638422 0.632336 
80 0.89681 0.15058 0.0457408 0.330888 -3.52341 -0.0684075 -0.162248 0.305801 
79 0.949309 0.100288 0.042729 0.211746 -3.52166 -0.240711 -0.562685 -0.0553401 
83 0.0521506 0.201269 0.0487529 0.346148 -3.51412 -0.71432 -0.32151 0.0422934 
87 0.155945 0.200578 0.0467075 0.612523 -3.50837 -0.0414636 -0.0982328 0.826454 
91 0.254684 0.198374 0.0497912 0.28019 -3.46496 -0.298506 0.829966 0.810203 
92 0.20306 0.253701 0.0467412 0.667838 -3.45822 -0.101428 -1.22269 0.475339 
96 0.302669 0.25207 0.0544128 0.279373 -3.51209 0.0108917 -0.589753 -0.86281 
95 0.35493 0.19847 0.0580246 0.345237 -3.46042 -0.679404 0.422844 -0.88197 
94 0.354703 0.25003 0.00454386 0.229474 -3.45617 -0.177596 -0.435212 0.297677 
100 0.402694 0.24516 0.0591053 0.89394 -3.45975 1.04182 1.06021 -0.966546 
99 0.45907 0.196686 0.0588226 0.523351 -3.49302 -0.193024 0.0130397 0.0611572 
98 0.459381 0.244816 0.00841244 0.51523 -3.46083 -0.1851 1.4962 -0.609865 
103 0.551234 0.191289 0.0551511 0.834192 -3.45259 0.551667 0.3441 -0.225428 
102 0.555653 0.244322 0.00380485 0.242445 -3.46004 0.45837 0.316109 0.317282 
107 0.650218 0.191061 0.0521602 0.278266 -3.51645 -0.150868 0.137044 -0.916179 
108 0.603369 0.243639 0.0526255 0.163236 -3.50151 -0.151051 -0.278562 -0.100868 
109 0.703786 0.195359 0.00189542 1.0352 -3.47201 -1.27745 -1.69554 -0.10997 
111 0.751269 0.192533 0.0520693 0.683098 -3.51401 0.0890891 0.249455 0.236654 
115 0.841331 0.195652 0.0481246 0.668288 -3.47315 0.427492 0.260259 0.328363 
120 0.891169 0.247655 0.0448558 0.514391 -3.51001 0.678611 0.132781 -0.213599 
119 0.949331 0.199197 0.048451 0.319874 -3.49785 -0.672288 0.433317 -0.562561 
84 0.994844 0.249141 0.0483129 0.305899 -3.50652 0.773522 0.326925 0.41178 
123 0.0479789 0.296816 0.0476346 0.213214 -3.52357 0.0868019 0.237616 0.435652 
88 0.100542 0.248917 0.0482603 0.202295 -3.48444 0.0187211 0.555046 -0.217969 
125 0.100957 0.302054 -0.00196018 0.299086 -3.47561 -0.0722651 -1.21672 0.189771 
127 0.14737 0.301022 0.0470965 0.610794 -3.41966 0.909056 -0.170805 1.91263 
129 0.203171 0.304614 0.997567 0.505535 -3.50476 0.0324562 -0.574926 0.19672 
131 0.252658 0.300731 0.0511817 0.112966 -3.50954 -0.0380909 -0.0185005 -0.563669 
135 0.352872 0.301412 0.0539969 0.309342 -3.50842 0.0665697 -0.728238 0.0143112 
137 0.404304 0.298098 0.00614099 0.474031 -3.4594 0.733642 0.0685016 0.530249 
139 0.458835 0.295152 0.0522918 1.01183 -3.51169 -0.536027 0.16043 0.654263 
104 0.511947 0.24844 0.0547134 0.877355 -3.47899 -0.230051 -0.204673 0.989275 
143 0.559762 0.297997 0.0570153 0.504621 -3.48492 0.311502 -0.225074 0.00658139 
106 0.647963 0.242194 0.000462067 0.54169 -3.47498 0.207245 -0.738007 0.228599 
147 0.653181 0.294497 0.0521986 0.477113 -3.47855 -0.389706 -0.950211 -0.0710114 
112 0.698979 0.24243 0.0500043 0.39781 -3.49058 0.16097 -0.0224209 0.793286 
149 0.689607 0.295371 -0.00187676 0.448174 -3.48616 -0.525356 -0.139166 -1.04287 
110 0.73841 0.248615 -0.00111349 0.72975 -3.46577 1.49568 -0.185204 -1.17026 
116 0.792503 0.246213 0.0480347 0.168325 -3.49693 -0.0815374 0.556406 -0.213239 
151 0.74015 0.296912 0.0477654 0.376344 -3.50606 0.185757 -0.331165 0.15156 
155 0.838861 0.29708 0.0458169 0.284838 -3.51334 0.15129 -0.0601978 0.401575 
159 0.945893 0.296137 0.0462291 0.262517 -3.46937 -0.619399 1.34848 -0.260852 
122 0.0500293 0.347247 1.00054 0.245702 -3.50547 -0.305181 0.388287 -0.389377 
163 0.0459792 0.395439 0.0470347 0.57589 -3.49619 0.833413 0.493476 1.05568 
128 0.10057 0.347276 0.0486314 0.323567 -3.47163 -0.838556 1.37218 0.202358 
167 0.145664 0.400371 0.0490293 0.518724 -3.49282 0.605321 -0.553418 0.674916 
132 0.198535 0.351269 0.049507 0.274972 -3.51239 0.702628 -0.048762 0.385824 
136 0.300925 0.352151 0.0539312 0.349774 -3.50644 0.36779 -0.610393 -0.312147 
171 0.253806 0.4001 0.0532056 0.272912 -3.49781 -0.423828 0.183035 0.625551 
134 0.355204 0.352708 0.00517429 0.542622 -3.5197 0.075706 -0.866081 -0.505188 
140 0.40488 0.347955 0.0575971 0.338356 -3.50538 0.757753 -0.349379 -0.835806 
175 0.354917 0.399656 0.0549429 0.419079 -3.50312 -0.253286 -0.548857 0.730303 
177 0.412114 0.395292 0.0102406 0.839573 -3.48119 -0.135776 0.109405 -0.155674 
179 0.461308 0.397242 0.0585414 0.368889 -3.46641 -0.524676 -0.313738 0.669101 
144 0.506496 0.345701 0.0577614 0.564378 -3.50401 0.767231 0.057424 -0.0956361 
142 0.56029 0.347019 0.00807529 0.513755 -3.45146 -0.240501 -0.00552711 0.77493 
181 0.514734 0.394957 0.0124491 1.33088 -3.45227 -1.02896 0.550172 0.335518 
183 0.565596 0.394598 0.0584681 1.03153 -3.41638 -0.940835 0.247862 0.81808 
146 0.644076 0.347019 0.00185678 4.70995 -3.41838 0.775443 0.140582 0.557465 
148 0.608133 0.345607 0.0577547 0.486406 -3.48263 0.672142 -0.395532 0.139224 
185 0.602723 0.397186 0.00494855 5.22008 -3.46331 0.39377 0.837505 -0.28801 
187 0.654093 0.397698 0.0494387 4.55482 -3.47509 -0.134991 -0.371952 0.433268 
152 0.695221 0.34656 0.0446159 4.72613 -3.45637 0.351689 -0.0295406 1.05087 
189 0.690409 0.399345 0.994796 0.501242 -3.47483 0.252545 0.348527 -0.26475 
150 0.739734 0.348139 0.993214 0.274364 -3.478 -0.858213 0.660286 0.683345 
191 0.743017 0.39729 0.0442955 0.390881 -3.4825 -1.31313 0.393916 -0.495453 
156 0.790767 0.348177 0.0419875 0.617391 -3.46944 -0.0103118 0.0788671 1.43356 
193 0.791261 0.398207 0.991427 0.49984 -3.50427 -0.49517 0.621357 0.308995 
154 0.842991 0.348099 -0.00530655 0.389901 -3.49661 -0.513871 -0.0703885 0.116582 
160 0.891095 0.346821 0.0490161 0.363532 -3.50017 0.601641 -0.00850824 -0.987845 
195 0.839463 0.396022 0.0440634 0.19254 -3.48189 -0.676643 0.4047 0.317231 
197 0.89027 0.399163 -0.000613625 0.44663 -3.48609 0.688098 -0.305426 -0.697506 
124 0.997668 0.345559 0.0495098 0.283386 -3.51923 -0.474672 0.091259 -0.184281 
199 0.945363 0.398856 0.0488317 0.33275 -3.50957 -0.439946 -0.74959 -0.31875 
162 0.0457234 0.451573 1.00222 0.665206 -3.50363 0.0209841 -0.642708 -1.16894 
166 0.149942 0.448896 0.00284684 0.219009 -3.5072 -0.0458753 0.184947 -0.746773 
168 0.0968067 0.447923 0.0493301 0.132938 -3.50254 -0.062565 0.231963 -0.301213 
172 0.198707 0.447735 0.0509092 0.284592 -3.51087 0.471025 0.247841 0.363267 
211 0.253471 0.499705 0.0551335 0.308741 -3.51044 -0.385197 -0.381705 -0.507311 
170 0.254822 0.44677 0.00504884 0.460812 -3.46461 -0.723414 0.530488 -1.08163 
176 0.305711 0.448034 0.0541229 0.265817 -3.49872 0.113403 0.120133 0.0693278 
174 0.363361 0.445772 0.00714284 0.76206 -3.49148 -0.950778 0.500068 -0.885114 
180 0.409779 0.444737 0.0587922 0.250868 -3.5029 0.203318 0.626813 -0.170665 
178 0.462366 0.446166 0.00753319 0.399185 -3.46036 -0.190801 0.567832 0.430848 
182 0.558295 0.449714 0.0102444 0.476932 -3.48974 0.214138 -0.490526 -0.280634 
184 0.511693 0.448188 0.060804 0.200095 -3.48954 0.164109 -1.08047 -0.189758 
221 0.509077 0.499034 0.0109119 5.08886 -3.50228 0.194251 -0.0302459 -0.108796 
223 0.558862 0.498159 0.0612572 0.568123 -3.50452 -0.0794737 0.0180192 -0.388806 
186 0.649544 0.450742 -0.000743533 4.81962 -3.45711 -1.12425 0.791689 0.0294831 
188 0.613181 0.449532 0.0599329 4.28272 -3.42917 -0.593092 -0.0760491 -1.2491 
227 0.649644 0.506436 0.0524798 4.85734 -3.45294 -0.38327 -1.22493 -0.739708 
192 0.692116 0.451768 0.0496 4.51192 -3.46022 -0.234896 0.012835 0.114724 
229 0.689178 0.507158 0.997437 4.58715 -3.45043 -0.03023 -0.513868 0.528486 
196 0.789148 0.445018 0.0439064 0.524083 -3.47019 0.571462 0.911604 0.369459 
194 0.842294 0.450704 0.995384 0.274814 -3.49108 -0.536735 -0.320995 0.47598 
200 0.889892 0.445245 0.0471114 0.285402 -3.48672 -0.0269321 1.01886 -0.530717 
164 -0.00401887 0.447881 0.050676 0.384625 -3.47394 -0.46802 0.416762 -0.842243 
203 0.0458072 0.500267 0.0475053 0.404338 -3.51186 -0.449958 -0.548878 0.329173 
204 0.988742 0.5477 0.0466301 0.70915 -3.49273 0.706504 -0.343811 1.03133 
206 0.145143 0.54815 1.00011 0.549976 -3.5086 0.663837 -0.17751 0.103978 
207 0.146966 0.499015 0.0511505 0.109388 -3.49845 -0.00100188 0.342377 -0.368744 
208 0.0956411 0.549715 0.0503058 0.375421 -3.50051 -0.294009 -0.55539 -0.921167 
212 0.20068 0.550193 0.0504402 0.520351 -3.5175 -0.30976 -0.382222 0.480929 
210 0.253363 0.547787 0.0046472 0.236809 -3.51532 0.409349 -0.472097 -0.185289 
216 0.308273 0.545568 0.0533082 0.432456 -3.49837 -0.314525 0.857628 0.326594 
214 0.365363 0.547856 0.00558491 0.964165 -3.5016 -0.319611 -0.320846 0.0840707 
215 0.357995 0.498107 0.0568655 0.214347 -3.49552 0.155438 -0.810848 -0.302466 
217 0.411009 0.496385 1.0072 0.191789 -3.48109 0.586895 -0.625036 0.536506 
220 0.409172 0.544239 0.0576519 0.527034 -3.49445 -0.0801597 0.884319 0.306455 
218 0.46107 0.548179 0.0114721 1.04579 -3.47936 -0.477922 -0.466565 -0.979926 
219 0.458216 0.497689 0.0629316 0.871878 -3.4326 0.246781 -0.209609 -1.5514 
224 0.510076 0.547702 0.0561748 0.425343 -3.48303 0.410442 0.235957 0.810866 
222 0.553955 0.553089 0.00536097 5.06509 -3.50157 -0.250159 0.34685 0.574599 
228 0.598153 0.550132 0.0558243 5.10811 -3.48417 0.408468 0.568899 -0.0557495 
232 0.698089 0.549499 0.0519293 1.0852 -3.45152 -0.0930144 0.878422 0.427182 
230 0.746432 0.550706 1.00183 0.678662 -3.46791 -0.580647 0.645633 -1.15485 
231 0.739759 0.500195 0.0426954 1.38281 -3.41758 0.634057 -0.497567 0.88198 
233 0.79146 0.499059 0.996663 0.313538 -3.49518 0.164283 0.337434 -0.230916 
236 0.794639 0.548576 0.0468172 0.225455 -3.49056 -0.00919333 0.37049 0.0573864 
235 0.840625 0.499314 0.0458304 0.440044 -3.48093 0.485654 -0.312657 -0.388345 
240 0.896582 0.546214 0.0475373 0.433162 -3.48739 0.240417 0.175245 -0.212567 
239 0.943119 0.496175 0.0481864 0.283976 -3.50471 -0.019267 -0.443388 0.280225 
242 0.0440283 0.646593 0.996733 0.369417 -3.50371 0.406602 0.262375 0.890625 
243 0.0422387 0.596043 0.0483794 0.157338 -3.50589 0.0424019 1.02535 -0.0405283 
244 0.991296 0.647033 0.0493318 4.77455 -3.49168 0.118254 0.101339 -0.683532 
246 0.151401 0.64363 1.00018 0.439464 -3.45003 -0.31269 1.45077 -0.665155 
247 0.147139 0.59827 0.0478495 0.246295 -3.50357 0.213835 -0.530163 0.922673 
248 0.0952407 0.645574 0.0500773 0.165754 -3.51645 -0.190525 -0.0415693 -0.132178 
252 0.199198 0.644102 0.047355 0.84275 -3.47662 0.989996 -0.137392 0.977064 
250 0.253134 0.648483 0.00203429 0.301552 -3.5016 0.609084 -0.451201 0.0723388 
251 0.2551 0.596894 0.0516379 0.465964 -3.48422 -0.634855 0.246407 0.382958 
253 0.306718 0.594726 0.00679222 0.492778 -3.49284 0.054975 0.537339 -0.652538 
256 0.304006 0.646546 0.0534654 0.198366 -3.48605 -0.441089 0.468805 -0.408386 
254 0.35793 0.644534 0.00808726 1.03231 -3.50164 -0.0290388 0.563861 -0.116691 
255 0.360905 0.59655 0.0550658 0.512025 -3.50782 -0.266759 -0.389243 0.0262511 
257 0.41017 0.599377 0.00221708 0.944252 -3.48249 -0.0563168 -0.299781 0.33934 
260 0.409323 0.643244 0.0583713 1.32329 -3.46226 0.00766935 1.10892 -0.667757 
258 0.454503 0.654532 0.00410866 0.795295 -3.47649 0.0541063 -0.849015 -0.38854 
259 0.459263 0.597063 0.0573795 0.273185 -3.46928 -0.125019 -0.548025 -0.188464 
261 0.50562 0.602067 0.00648849 4.70214 -3.50097 -0.507341 -0.107827 -0.90236 
262 0.546064 0.654498 -0.00318265 1.13232 -3.49003 0.753866 0.474193 0.09603 
263 0.554217 0.603724 0.0545812 0.364602 -3.47858 -0.0705944 -1.01333 -0.221702 
264 0.501753 0.648698 0.0536135 4.9176 -3.50109 0.486496 0.842437 0.0557607 
266 0.646378 0.653104 1.00118 0.494268 -3.45975 0.117734 0.227679 0.32212 
267 0.647637 0.601853 0.0540219 0.530454 -3.42762 -0.795063 1.22642 -1.2181 
268 0.597921 0.659545 0.0513846 1.55823 -3.48001 0.152209 -0.970584 -0.757034 
272 0.695395 0.655526 0.050245 0.656446 -3.49573 0.223818 -0.311815 -0.325616 
271 0.750234 0.60299 0.0499305 0.367685 -3.50018 -0.845419 -0.70197 -0.0603351 
276 0.800773 0.651275 0.0489455 0.275395 -3.49042 0.526267 -0.3424 0.748363 
275 0.848545 0.59753 0.0454715 0.210664 -3.47957 0.168471 0.0708322 1.2359 
280 0.902318 0.649846 0.043359 0.489909 -3.4931 -0.369088 -0.129887 -0.0859228 
278 0.950509 0.651043 0.992415 1.05156 -3.4877 -0.230496 0.171933 0.554941 
279 0.943578 0.596894 0.0474821 0.230771 -3.47093 0.13453 0.492324 -0.962919 
283 0.0436484 0.693727 0.0455926 0.745303 -3.4923 0.192602 0.200698 0.360957 
285 0.100186 0.694489 0.997818 0.270102 -3.48295 -0.149615 0.440682 0.600875 
287 0.148197 0.69267 0.0535864 0.873141 -3.46418 -0.187618 0.874681 -1.22353 
289 0.199432 0.697175 1.0008 0.318342 -3.50076 0.518816 -0.0630122 0.228307 
291 0.249672 0.697705 0.050134 0.389919 -3.50291 0.286678 -0.599395 0.577038 
295 0.354495 0.694604 0.0560826 0.626654 -3.48643 0.631886 0.221057 -0.36404 
297 0.403108 0.699031 0.00519342 0.523218 -3.48096 -0.572043 -0.239173 -0.56003 
299 0.454203 0.699298 0.0524085 0.41988 -3.49019 -0.305921 0.159519 0.204686 
301 0.497234 0.704963 -0.00394312 0.706625 -3.48505 -0.746186 0.218513 -0.280977 
303 0.542253 0.703577 0.0464441 4.45686 -3.45602 0.81361 0.609134 -0.084344 
305 0.603789 0.705873 -6.15192e-05 1.12075 -3.47865 -0.899547 -0.183193 -0.171876 
307 0.651916 0.708244 0.0517454 1.08461 -3.45568 -1.01421 -1.09187 -0.123688 
308 0.598148 0.756234 0.0457202 0.445791 -3.50852 0.177762 -0.417234 0.171306 
309 0.700056 0.700634 1.00058 0.254379 -3.48119 -0.134461 -0.196801 -0.122131 
311 0.749342 0.700844 0.0518392 0.366178 -3.5128 0.36355 0.170922 -0.0202906 
313 0.798961 0.698241 -0.00338634 0.304137 -3.47827 -0.115045 0.41648 1.06729 
315 0.853236 0.698677 0.0470238 0.300639 -3.50121 -0.020367 0.76259 -0.715018 
317 0.89714 0.70008 0.993239 0.218369 -3.51443 0.261844 0.0692135 -0.163908 
319 0.949979 0.702595 0.0408915 0.963255 -3.5043 -0.0624619 -0.669945 0.0539004 
323 0.0531409 0.797235 0.0423167 0.53969 -3.48292 -0.555736 0.0330674 0.219019 
288 0.0963422 0.741754 0.0501558 1.08199 -3.51278 0.0600071 0.236976 -0.214996 
325 0.103447 0.799024 -0.00639745 0.674806 -3.4862 0.765307 0.260656 0.886866 
327 0.145511 0.794813 0.0510175 0.519577 -3.44438 0.448146 0.503681 -0.322403 
292 0.198161 0.746913 0.0525407 0.222927 -3.50096 0.366365 -0.222761 -0.605821 
290 0.254636 0.74649 0.00154829 0.310026 -3.50029 -0.239984 0.281336 0.902368 
296 0.303545 0.74674 0.0511484 0.158743 -3.49876 -0.117152 -0.105875 -0.318926 
331 0.25267 0.800007 0.0505764 0.654924 -3.48057 0.412953 -1.227 0.270048 
300 0.402952 0.748653 0.0509382 0.417243 -3.48327 -0.758528 -0.0430527 1.01675 
335 0.3505 0.798107 0.0496314 0.246527 -3.51527 0.711766 -0.0659152 1.17448 
298 0.439825 0.75261 0.999406 5.29887 -3.44549 1.01684 0.586048 -0.0731025 
339 0.446655 0.801221 0.0493005 0.20686 -3.48716 -0.187404 0.139657 -1.02195 
304 0.493697 0.753842 0.0475194 0.523372 -3.4827 0.116297 0.198128 0.48365 
302 0.546543 0.758463 0.996934 0.785731 -3.47869 -0.0285207 -1.17559 0.275399 
341 0.491321 0.80175 -0.00584835 0.72328 -3.49755 0.213089 0.196355 0.584829 
343 0.544375 0.80287 0.0473207 0.347386 -3.50018 0.648575 -0.219104 -0.399649 
306 0.653667 0.750238 -0.00423418 0.762499 -3.49312 0.12619 1.0372 -0.058798 
345 0.599683 0.801782 -0.00532629 0.312787 -3.49288 0.0992286 0.316819 0.46287 
347 0.654986 0.802926 0.041937 1.21878 -3.50047 -0.341976 -0.297979 1.0325 
312 0.701789 0.751787 0.0471265 0.297213 -3.45807 0.375322 0.392185 0.699729 
349 0.707926 0.801444 -0.00234756 0.883826 -3.48916 -0.359248 -0.422658 -0.144774 
310 0.750058 0.747634 1.00184 0.703533 -3.48867 -0.194691 0.795979 -0.320502 
316 0.802338 0.749492 0.0491601 0.210808 -3.48837 -0.0389988 -1.00457 0.178507 
351 0.755897 0.797091 0.0510758 0.774424 -3.48404 -0.0172307 0.731549 -0.203774 
314 0.845167 0.750558 0.994325 0.393026 -3.45149 0.39376 -0.605782 0.546871 
320 0.899861 0.75226 0.0406505 0.529149 -3.49555 -0.363419 -0.16507 0.19384 
355 0.848373 0.800674 0.0461171 0.329536 -3.48862 0.466587 -0.531216 -0.104744 
357 0.897113 0.799763 0.995519 0.277919 -3.51748 -0.122339 0.40566 -0.406232 
284 1.00242 0.749489 0.0425031 0.513737 -3.49441 -0.221162 -0.017264 -0.325394 
359 0.951716 0.802525 0.0428801 0.361585 -3.50858 -0.0978886 -0.415031 -0.543326 
363 0.0526168 0.898903 0.0418026 0.205647 -3.52558 -0.0580542 -0.219786 0.556092 
328 0.0991801 0.845932 0.0470618 0.176455 -3.4929 0.815889 0.618073 -0.231471 
365 0.105643 0.899209 0.996457 0.209018 -3.46548 -0.628292 1.09501 -0.135379 
367 0.147464 0.897508 0.0496318 0.241194 -3.48394 0.904221 -1.20358 -0.314468 
332 0.198265 0.847285 0.0521568 0.219957 -3.50628 -0.641414 -0.885811 -0.0818762 
369 0.203954 0.896683 0.00214984 0.505776 -3.50003 -0.241375 0.02113 -0.160967 
371 0.248703 0.895504 0.054531 0.373529 -3.48943 -0.381858 0.532076 0.371247 
330 0.250104 0.845993 0.00476353 0.47532 -3.48139 0.416841 0.697099 0.153834 
336 0.303551 0.84854 0.0555051 0.954851 -3.4714 -0.597088 0.60442 -0.778639 
334 0.348492 0.848747 0.00264564 0.378353 -3.50358 -0.24134 0.290736 -0.471348 
340 0.397157 0.848421 0.0498157 0.177888 -3.5023 -0.45645 1.17722 0.683671 
375 0.347491 0.902367 0.0488818 1.30876 -3.42261 -0.116047 -0.650107 1.14963 
377 0.395893 0.897362 -0.000615413 0.36096 -3.49008 0.121806 0.329781 -0.0398463 
379 0.446732 0.899365 0.0480432 0.144451 -3.50375 0.0140041 -0.0992022 0.391007 
344 0.497279 0.850446 0.046141 0.204545 -3.48494 -0.27621 -0.695808 0.607608 
383 0.548352 0.901198 0.0491491 0.296634 -3.50432 -0.123641 -1.09682 0.102343 
348 0.599685 0.849663 0.0497578 0.288788 -3.51431 -0.111819 -0.108268 -0.623052 
385 0.598459 0.897498 -0.000446067 0.323299 -3.50469 0.496228 0.36686 -0.742264 
387 0.651986 0.899262 0.0516538 0.451338 -3.50005 0.517876 -0.808809 -0.713594 
352 0.707679 0.84943 0.0470718 0.534306 -3.49253 -0.701958 0.0850043 0.0987553 
350 0.755881 0.848905 -0.00301579 0.411966 -3.46666 -0.336199 0.365289 -0.469347 
356 0.801169 0.852942 0.0501431 0.887261 -3.45007 0.40834 -0.949982 -0.761326 
391 0.753117 0.898938 0.0479488 0.152054 -3.47795 -0.300627 0.680814 -0.247409 
360 0.900908 0.852852 0.0415509 0.707429 -3.50751 0.0894009 -0.741185 0.345369 
395 0.851324 0.898399 0.047497 0.232106 -3.47074 -0.0158379 0.43669 -0.945213 
397 0.899684 0.899651 0.990801 0.345544 -3.50012 -0.426077 0.373564 -0.0688989 
324 0.00463026 0.847484 0.0396701 0.692412 -3.49513 -0.595462 0.344298 0.288745 
361 0.00434313 0.901845 0.993018 0.382118 -3.51643 -0.412967 -0.418962 -0.241367 
358 0.952758 0.850388 0.991598 0.233536 -3.52162 -0.321404 0.0818358 -0.0625267 
399 0.952722 0.897742 0.0405658 0.361217 -3.51374 -0.194565 0.307329 0.0988255 
362 0.0556629 0.949566 0.993732 0.184601 -3.50464 -0.0361447 -0.345913 -0.455623 
368 0.10276 0.94865 0.0486028 0.542814 -3.48041 -0.117751 -0.379746 -1.66027 
9 0.202594 1.00107 -0.00171982 0.164558 -3.49809 -0.283633 -0.364083 -0.0893058 
372 0.198353 0.945267 0.0511988 0.243432 -3.46321 -0.14319 0.471258 0.503524 
370 0.247116 0.948387 0.00146684 0.351983 -3.50571 0.0724885 -0.133096 0.261809 
13 0.298319 0.998524 0.0071749 0.96087 -3.45528 -0.644548 0.359363 -0.538606 
376 0.29336 0.949697 0.0565599 1.1738 -3.51066 0.645053 -0.505897 -0.521797 
374 0.343091 0.949688 0.00184626 0.359402 -3.44321 0.232613 0.0266862 0.731158 
380 0.396442 0.944478 0.0498966 0.522297 -3.43632 0.355231 1.4903 -0.429614 
384 0.496334 0.9492 0.050715 0.223077 -3.50874 0.0629306 -0.397792 -0.336387 
27 0.647399 -0.00261503 0.0500986 0.382952 -3.50777 0.961227 -0.350999 -0.300788 
388 0.601736 0.945715 0.0482747 0.431791 -3.48992 -0.0419549 0.462437 0.791002 
392 0.702401 0.948715 0.0471646 0.292172 -3.49888 -0.00392486 0.496052 0.363937 
396 0.800105 0.947585 0.0478339 0.32382 -3.48601 0.532404 0.331621 0.335576 
35 0.851957 0.996798 0.0440284 0.288036 -3.4714 0.0792813 -0.400411 -0.204841 
37 0.902896 1.00231 0.993627 0.482808 -3.48048 -0.87404 -0.488593 -0.348573 
400 0.901996 0.946865 0.0435354 0.231694 -3.49314 0.348203 -0.0861234 -0.407468 
364 1.00439 0.949699 0.0412087 0.368979 -3.49317 -0.788368 -0.492842 0.225852 
398 0.949187 0.948779 0.992499 0.39487 -3.51759 0.563323 0.47266 -0.0491933 
402 0.04966 0.0476068 0.0924104 0.14383 -3.50635 -0.330716 1.18202 0.0149608 
403 0.0468552 0.998231 0.143916 0.107537 -3.51543 -0.320086 -0.520356 -0.233864 
405 0.0961993 0.997263 0.0928198 0.39764 -3.47322 0.91883 0.501711 1.39112 
406 0.14739 0.0478059 0.0976413 0.109781 -3.51299 0.114837 -0.263263 -0.682538 
408 0.0953989 0.0485626 0.144646 0.0617746 -3.49062 0.474946 -1.59282 -0.297478 
412 0.191984 0.0480529 0.150495 0.698543 -3.47199 1.22792 -0.352073 -1.60512 
410 0.246063 0.0451156 0.0971219 0.717188 -3.48884 0.088581 0.263769 1.73598 
411 0.24822 -0.00378703 0.149226 0.42252 -3.49822 -0.521566 0.794388 -0.212349 
416 0.298837 0.0489087 0.150803 0.29923 -3.51911 -0.712864 -0.303035 0.0312064 
414 0.351197 0.0499034 0.104848 0.363599 -3.48696 -0.233332 -0.781279 0.0460419 
420 0.395931 0.0492696 0.156715 0.440829 -3.47662 0.492685 0.289728 0.155174 
418 0.446194 0.0466897 0.10857 0.811524 -3.48584 0.293475 0.408856 -0.404337 
419 0.450477 -0.0034534 0.154833 0.533135 -3.48182 -0.319292 0.529906 0.0446692 
421 0.494788 0.996853 0.10239 0.660514 -3.47294 -0.00449854 0.25817 -0.306902 
424 0.503829 0.0503696 0.155272 0.830285 -3.44691 -1.0523 -0.372406 0.478058 
422 0.549978 0.0425043 0.100227 0.755764 -3.4852 -0.119539 0.15776 0.398708 
426 0.650241 0.0452198 0.100837 0.10205 -3.51089 -0.106388 0.302415 -0.0721568 
427 0.654563 -0.00568554 0.153051 0.441575 -3.5057 -0.599925 0.496487 -0.262911 
428 0.600957 0.0457461 0.152605 0.208635 -3.50462 -0.102528 -0.541836 -0.23986 
432 0.704915 0.0448918 0.151543 0.1841 -3.50646 -0.227219 0.21144 -0.0952509 
430 0.758054 0.0444015 0.0962541 0.90198 -3.45673 -1.07772 0.352236 0.955941 
431 0.756322 0.998256 0.148572 0.294722 -3.51509 -0.179803 -0.276599 0.316301 
436 0.806418 0.0463351 0.152016 0.815351 -3.48441 0.383686 -0.472378 -1.61967 
434 0.853056 0.0459051 0.0925849 0.405865 -3.43616 -0.14009 -0.149206 0.735848 
437 0.904567 0.997648 0.0908847 0.403161 -3.50359 -0.766032 0.0054703 0.631708 
440 0.90058 0.0458072 0.141684 4.51066 -3.49978 0.561244 1.08992 0.496509 
401 0.998382 0.997907 0.0905931 0.245134 -3.51324 0.19487 0.59573 -0.103037 
404 1.00007 0.0471264 0.142407 0.181496 -3.49531 -0.469025 -0.421072 0.11956 
438 0.95102 0.0494292 0.0925339 0.0834954 -3.51712 0.0112292 0.0515172 -1.39016 
442 0.0485872 0.149348 0.0968466 0.0814858 -3.49107 -0.0440191 -0.954179 -0.526097 
443 0.0468102 0.0977157 0.144193 0.137282 -3.51078 0.00970179 -0.108556 -0.778307 
444 -0.00251487 0.151442 0.146544 0.585001 -3.49137 0.0475043 -0.870547 0.0361879 
445 0.099168 0.0971847 0.0958135 0.199752 -3.48466 -0.362742 1.66372 0.122503 
446 0.146696 0.14805 0.0971162 0.386547 -3.5017 0.804138 0.819869 -0.23084 
447 0.146124 0.0965921 0.144657 0.289528 -3.49282 -1.00023 0.0749994 1.18807 
448 0.0953131 0.150141 0.146878 0.333164 -3.45326 0.276036 -1.55103 -0.742993 
449 0.198881 0.0965528 0.0989065 0.186324 -3.50396 -0.503026 -0.326305 -0.371393 
452 0.195993 0.145674 0.147033 0.185835 -3.47298 0.21955 -0.0330059 1.09754 
451 0.243757 0.096471 0.147574 0.318348 -3.48039 0.893452 -0.261902 -0.0970043 
450 0.248458 0.147191 0.0984562 0.296682 -3.45517 1.19182 -0.880187 0.863888 
453 0.299315 0.0962033 0.103055 0.24473 -3.51467 -0.661035 0.196171 0.291167 
456 0.296338 0.148349 0.152032 0.1639 -3.47774 -0.513121 0.0608291 -0.425398 
454 0.347821 0.147703 0.109004 0.771201 -3.47362 1.18391 -0.389192 -1.26379 
455 0.346671 0.0991073 0.156936 0.469496 -3.49788 0.23027 -0.082901 -0.18081 
457 0.398567 0.100955 0.112497 1.32255 -3.44391 -0.105833 0.325583 -1.54868 
460 0.403244 0.150687 0.154944 0.384612 -3.50123 -0.455004 0.0192418 0.798483 
458 0.454964 0.147171 0.10987 0.481235 -3.49518 0.73337 0.31386 -0.538209 
459 0.449162 0.0983685 0.157848 0.51768 -3.47634 1.1106 0.460804 -0.0674954 
464 0.506681 0.14942 0.155445 0.252787 -3.45574 -0.317171 0.288452 -0.130603 
461 0.504739 0.0927168 0.105797 1.19113 -3.4453 -1.02638 0.406904 -0.770216 
462 0.549856 0.144211 0.104886 0.512665 -3.48712 0.558134 0.00549941 0.0201616 
463 0.553935 0.0985548 0.152442 0.228251 -3.49881 -0.181048 -0.0282456 0.757323 
465 0.600933 0.0943308 0.103139 0.297695 -3.48827 -0.188945 0.284134 0.274126 
466 0.652676 0.139478 0.0985689 0.841434 -3.46023 -0.235363 0.243793 0.65857 
467 0.65213 0.0953622 0.150721 0.134314 -3.51042 -0.327698 -0.395389 0.0346338 
468 0.602951 0.148123 0.152425 0.343826 -3.49576 0.426578 -0.255202 -0.655461 
469 0.703604 0.0925127 0.100185 0.263423 -3.51087 -0.0438406 -0.53228 -0.164207 
472 0.702954 0.140471 0.148811 0.405349 -3.48047 -0.0945867 0.382014 1.19839 
471 0.754877 0.0932911 0.150159 0.159553 -3.51178 0.0409079 -0.194449 -0.304649 
470 0.748821 0.14074 0.100902 0.407014 -3.47203 0.377171 0.967634 0.108029 
473 0.804101 0.0928883 0.0963444 0.448074 -3.47865 0.526932 -0.105465 0.410896 
476 0.80186 0.14427 0.151839 0.158817 -3.45784 0.471441 -0.38592 -0.150254 
474 0.850467 0.1461 0.0996032 0.235268 -3.47519 0.0809346 0.169611 -0.761629 
475 0.852853 0.097509 0.149346 0.285634 -3.47851 0.49066 -0.0281668 0.0306196 
477 0.900079 0.0981559 0.0934433 0.149686 -3.49854 -0.190069 -0.0104844 0.693461 
480 0.902633 0.1456 0.147012 0.956161 -3.43423 -0.388023 0.940643 -0.257688 
441 -0.00134732 0.0973803 0.0947534 0.277705 -3.46569 0.110906 0.44317 -0.467596 
478 0.947559 0.146245 0.0967456 0.448836 -3.4737 0.573621 0.787315 -0.318963 
479 0.952468 0.0976888 0.142224 0.827541 -3.45358 -0.417722 -0.0929218 1.37094 
483 0.047217 0.198256 0.14725 0.288337 -3.49217 0.222527 0.33639 0.207725 
484 0.999073 0.24993 0.149546 0.258504 -3.48698 -0.579861 -0.618749 0.747563 
485 0.102293 0.201814 0.0986532 0.589997 -3.4875 -0.376385 -0.386511 -0.433721 
487 0.148777 0.1981 0.146416 0.144339 -3.51395 -0.030892 -0.198732 0.335277 
488 0.0984297 0.250666 0.148189 0.240886 -3.50935 -0.408936 -0.562498 0.366528 
489 0.204379 0.196151 0.0993244 0.717295 -3.43358 -1.22587 0.51226 -0.756784 
491 0.247065 0.198647 0.150067 0.168056 -3.46928 0.583527 -0.00897126 0.474796 
493 0.301677 0.202239 0.104085 0.476325 -3.49139 -0.560218 -1.47271 -0.0783098 