ITEM: TIMESTEP
1500
ITEM: NUMBER OF ATOMS
4000
ITEM: BOX BOUNDS pp pp pp
2.6242485962057454e+00 3.3475751403794284e+01
-1.4229210422404321e+00 3.7522921042240498e+01
-1.6458548199480880e+00 3.7745854819948207e+01
ITEM: ATOMS id xs ys zs c_csym c_peratom fx fy fz 
4 -0.000910353 0.0493812 0.0308754 0.519389 -3.47432 0.622042 -0.0764054 0.583389 
7 0.145954 1.00023 0.025232 5.00029 -3.49916 0.49167 -0.0178157 -0.397255 
8 0.0951183 0.0489334 0.0314889 5.32673 -3.46458 0.720323 0.434276 0.122753 
12 0.199354 0.0487676 0.0303352 4.83789 -3.51934 0.00767027 -0.185329 -0.176685 
9 0.197144 -0.000596754 0.975628 5.57281 -3.48362 -0.46915 -0.0825475 -0.674929 
16 0.290609 0.0455062 0.0316364 5.1882 -3.44552 1.44254 0.654378 -0.789139 
14 0.346128 0.05084 0.983818 0.774992 -3.47783 -0.0838971 -0.0106339 -0.420581 
20 0.397387 0.0483965 0.030398 0.237504 -3.46872 0.288858 -1.16138 0.599882 
24 0.498961 0.0473513 0.0345909 5.33958 -3.48248 0.273496 0.379026 -0.380066 
28 0.603269 0.0483705 0.0321815 0.428729 -3.50175 -0.440915 0.312401 0.327168 
32 0.700237 0.0520696 0.0350569 0.438226 -3.50312 0.184992 0.0749921 0.0626674 
36 0.805398 0.0507354 0.0354277 0.246934 -3.49804 -0.143903 -0.334273 0.479847 
40 0.905784 0.0504936 0.0345959 5.29876 -3.5 -0.404977 6.88785e-05 0.0244197 
43 0.049648 0.100545 0.0415186 5.18522 -3.50101 0.0769714 -0.529351 0.169303 
48 0.102391 0.146899 0.0485635 5.43028 -3.50998 -0.349216 -0.18884 0.393115 
47 0.149726 0.0960181 0.0390978 5.44823 -3.50029 -0.164461 0.0751388 0.393408 
52 0.198656 0.146437 0.0490291 0.167156 -3.49209 -0.117464 0.0310215 -0.309618 
51 0.24992 0.097038 0.0392239 5.56953 -3.47914 -0.63136 0.679672 -0.641871 
50 0.245061 0.147696 -0.00459287 5.67872 -3.50544 0.258286 -0.252471 0.364313 
53 0.291285 0.0953192 0.986188 4.89388 -3.48091 0.656944 0.471919 0.361405 
56 0.297156 0.149334 0.0485459 5.32581 -3.47989 -0.0249422 -0.138203 -0.697142 
55 0.346015 0.0962337 0.0378237 5.27605 -3.49496 -0.377659 -0.104474 -0.382171 
54 0.343605 0.148315 0.996839 0.269064 -3.50309 0.0651189 -0.150782 -0.105258 
57 0.397285 0.100636 0.987996 0.435652 -3.44659 0.186849 -1.12757 0.534059 
60 0.394482 0.147768 0.0471942 0.232937 -3.5116 0.24816 -0.196529 -0.0923483 
58 0.450438 0.146026 0.999361 0.684835 -3.48444 -0.308704 0.154368 -0.130573 
59 0.444545 0.094739 0.0397082 5.47898 -3.46979 0.288812 0.656602 -0.292869 
61 0.503272 0.0963974 0.98925 4.99648 -3.48996 -0.717811 0.304593 0.262347 
63 0.549074 0.0987052 0.0399766 0.24546 -3.48405 -0.0330421 0.132029 0.199703 
64 0.495258 0.148952 0.0481777 0.393631 -3.48125 0.622232 -0.28908 0.331364 
68 0.597433 0.154114 0.0497963 1.08378 -3.4984 -0.0499285 -1.00954 -0.0182234 
62 0.548677 0.150459 1.00213 4.97872 -3.50474 -0.114446 -0.213966 -0.841735 
66 0.645747 0.151037 1.00078 0.492085 -3.49058 0.840961 0.133619 -0.264055 
67 0.648259 0.103679 0.0420376 0.867438 -3.47003 -0.0541809 -0.555553 0.463031 
72 0.699047 0.148413 0.0516932 0.425988 -3.48002 1.25865 0.763502 -1.30042 
69 0.705248 0.101255 0.99132 5.13912 -3.46268 -0.802408 -0.254937 0.471719 
71 0.756206 0.0998021 0.0433589 0.492 -3.49643 -0.695433 0.103097 -0.133905 
76 0.802717 0.149733 0.0516074 0.144208 -3.4984 -0.138576 -0.364912 -0.212355 
75 0.855207 0.101061 0.0403891 0.458419 -3.48664 -0.122256 -0.576457 0.669158 
80 0.904899 0.146214 0.0494493 4.84099 -3.50566 -0.163147 0.854022 0.0339825 
44 0.00106201 0.151869 0.0523201 4.81907 -3.50393 -0.147787 -0.529495 -0.626328 
79 0.955928 0.100277 0.0427479 5.16317 -3.49571 -0.413805 -0.237665 -0.369061 
83 0.0513141 0.196841 0.0618968 4.92863 -3.42839 -0.264269 0.607484 -0.618172 
87 0.149245 0.19377 0.0565633 5.37744 -3.50546 0.135123 0.744335 0.421278 
91 0.244761 0.199338 0.0561996 4.97046 -3.49299 0.0605927 -0.641233 -0.000339517 
89 0.196898 0.194276 0.00444649 5.24663 -3.50668 -0.1612 0.421036 0.507168 
95 0.346811 0.198272 0.0519571 4.99548 -3.51257 -0.245262 0.0492304 0.54138 
93 0.294689 0.198959 0.00568688 5.24289 -3.5141 -0.34579 -0.0177296 -0.673935 
100 0.392048 0.248485 0.0628567 5.26971 -3.49666 0.35682 0.0307109 -0.256533 
99 0.445335 0.199308 0.0544944 0.12413 -3.5104 -0.124916 -0.0826352 -0.200115 
98 0.446121 0.248545 0.0123302 0.318059 -3.49333 -0.216213 0.266844 0.442027 
97 0.394104 0.198003 0.00512147 0.245773 -3.4906 0.612531 -0.253637 -0.467512 
103 0.546555 0.201399 0.0547855 0.285571 -3.43857 0.503905 -0.771611 0.317507 
102 0.547151 0.251017 0.0125471 0.435389 -3.48758 -0.296613 -0.426919 0.397278 
104 0.496884 0.249788 0.0628723 0.18833 -3.4986 -0.414259 -0.232697 -0.3647 
101 0.498083 0.199095 0.00861835 0.354741 -3.50773 -0.332692 0.221608 -0.702525 
105 0.597964 0.200549 0.00752902 0.108683 -3.4909 0.207235 0.203122 -0.336448 
107 0.652294 0.198484 0.0555234 4.77373 -3.49715 -0.821561 0.560501 0.583445 
108 0.598386 0.250811 0.0660353 0.408578 -3.43574 0.284753 -0.264441 -0.857935 
109 0.69832 0.199859 0.00769373 0.276885 -3.47806 0.431615 -0.407301 0.156458 
106 0.64636 0.252472 0.0163825 5.26327 -3.49188 0.410473 -0.627924 0.00188969 
112 0.698478 0.248221 0.0692039 0.629888 -3.48679 0.220848 0.371518 -0.681431 
111 0.751199 0.198943 0.0592017 0.143509 -3.49357 -0.247068 0.230817 -0.224082 
116 0.803247 0.248888 0.0677811 0.346744 -3.50343 -0.299078 -0.149996 -0.0662678 
115 0.850701 0.196101 0.0571701 5.41097 -3.4537 0.614487 0.218858 0.635286 
120 0.906207 0.246479 0.0684092 4.70859 -3.45781 -0.661098 0.926472 -0.361036 
119 0.949433 0.198642 0.0623346 5.2331 -3.45047 0.973379 -0.430888 -1.08344 
123 0.050796 0.296411 0.0794669 0.430818 -3.48568 0.427292 0.597543 -0.440362 
88 0.0994503 0.247139 0.0689515 0.242357 -3.46264 0.624192 0.544759 -0.0939103 
127 0.149858 0.299979 0.0792205 5.20579 -3.49922 -0.185074 -0.535929 -0.67885 
92 0.196676 0.245193 0.0699907 4.64312 -3.49996 -0.209676 0.615476 -0.688256 
129 0.194037 0.296798 0.026248 5.01607 -3.50645 0.365049 0.0381413 0.056674 
131 0.247972 0.296646 0.071718 4.90938 -3.48418 0.0720948 0.541561 0.278054 
90 0.244463 0.247693 0.0156636 5.15597 -3.48789 -0.075865 0.142112 -0.274006 
96 0.295571 0.245998 0.0625564 5.27539 -3.47646 0.384361 0.356515 0.64608 
94 0.343922 0.246822 0.00955348 5.14679 -3.44612 1.28373 1.35879 0.63978 
135 0.348355 0.298791 0.0746462 5.10297 -3.49399 -0.129499 -0.2841 -0.0238606 
133 0.299885 0.295779 0.024002 4.88537 -3.48882 -0.304791 0.31948 -0.240176 
137 0.392771 0.301126 0.0240603 4.88623 -3.45717 0.423506 -0.794418 -0.733654 
139 0.444067 0.297575 0.0714627 0.332203 -3.4938 0.180562 0.0610892 -0.0744424 
143 0.540427 0.298328 0.0691341 4.98526 -3.43433 0.865585 0.821901 0.258878 
141 0.492503 0.300526 0.0223873 0.308257 -3.49925 0.184293 -0.125271 -0.573578 
147 0.64732 0.300802 0.0739143 0.106959 -3.50171 0.516788 -0.417023 -0.211022 
145 0.595602 0.301055 0.0262152 4.66324 -3.49252 -0.205459 0.33452 -0.613304 
151 0.750723 0.298411 0.071495 0.32913 -3.49446 -0.298765 -0.171892 0.124599 
155 0.852675 0.298357 0.0748205 0.139805 -3.46664 0.221732 -0.282751 -0.132234 
84 -0.00146994 0.247543 0.0720204 5.24437 -3.49318 0.835046 -0.312892 -0.402927 
159 0.954496 0.297801 0.0754646 5.16328 -3.51141 -0.194708 -0.00962675 0.0801376 
163 0.0555548 0.3991 0.0932265 4.84575 -3.44924 -0.947172 0.294985 0.411426 
128 0.101059 0.349936 0.0867171 5.58147 -3.49874 0.198615 -0.530739 -0.175929 
167 0.151434 0.398919 0.0966038 5.56499 -3.46186 -0.0571804 0.0681298 -0.409616 
132 0.1967 0.348275 0.0860866 5.29736 -3.4756 0.880076 0.258173 -0.432507 
171 0.251237 0.396923 0.096173 5.24657 -3.47167 -0.457136 0.412603 -0.445425 
169 0.19482 0.399731 0.0456727 5.05907 -3.43246 0.790047 -0.0414783 -0.508257 
130 0.248478 0.347225 0.0316686 5.2998 -3.47707 -0.327451 0.255104 0.316901 
136 0.303024 0.350417 0.0814102 5.2743 -3.46258 -0.851487 -0.950038 0.54985 
134 0.344366 0.347868 0.0303369 5.21369 -3.49402 0.359016 0.147849 0.316637 
175 0.347845 0.399958 0.0907523 5.18842 -3.46058 0.341171 -0.123077 -0.00557334 
173 0.295486 0.397364 0.0425141 5.80304 -3.41422 0.076077 0.951993 -0.411096 
140 0.402992 0.348329 0.080672 4.96556 -3.47265 -0.55145 -0.0374281 0.464943 
177 0.398282 0.396569 0.038644 4.8615 -3.48314 -0.169624 0.365405 0.44705 
179 0.446948 0.400822 0.0898943 4.91385 -3.47823 -0.325794 0.292666 0.0657558 
138 0.446568 0.34897 0.0295312 4.94931 -3.50336 -0.109851 0.11389 -0.40069 
144 0.490133 0.351972 0.0800986 4.58197 -3.48636 0.251205 -0.857152 0.274532 
142 0.54289 0.351425 0.0294227 5.48366 -3.48772 0.166796 -0.659345 0.275282 
181 0.498217 0.399925 0.0400236 4.87487 -3.45282 -0.854972 0.362695 -0.059981 
183 0.546543 0.39788 0.0882917 2.30452 -3.48191 -0.183365 0.139008 0.316815 
146 0.647617 0.35083 0.0315834 0.118626 -3.49418 0.135252 0.276061 -0.314646 
148 0.596348 0.350209 0.0764478 5.02179 -3.48202 -0.544353 -0.775714 0.802504 
185 0.59441 0.401984 0.0395666 5.58489 -3.43946 0.640184 -0.633294 -0.369436 
187 0.648076 0.399272 0.0899659 2.60233 -3.43859 -0.217325 -0.22372 -0.608086 
152 0.696009 0.350865 0.0805453 0.331622 -3.48831 0.761183 -0.136625 -0.145261 
191 0.753262 0.401459 0.086559 1.3592 -3.43319 -0.40032 0.0340355 0.220093 
156 0.801516 0.348413 0.0804031 0.0881332 -3.50198 -0.308983 0.108895 0.117772 
160 0.907183 0.347254 0.0804718 4.82005 -3.4916 -0.29682 0.0811409 0.686107 
195 0.853045 0.396618 0.0900059 1.57274 -3.46777 -0.448112 0.943405 0.240642 
124 0.00260502 0.348413 0.0848595 0.176376 -3.50781 -0.0793374 0.00976931 0.106321 
199 0.955918 0.398551 0.094443 5.36205 -3.49141 -0.621437 0.045278 -0.210695 
161 0.00402393 0.399043 0.045098 4.94078 -3.49661 0.0249021 -0.052419 -0.0417802 
168 0.100739 0.448125 0.0853908 5.33576 -3.49818 0.299636 0.330081 0.0466771 
203 0.0488008 0.498434 0.077049 5.29821 -3.50441 0.432154 0.241472 -0.244655 
205 0.0973252 0.500776 0.0275156 5.24222 -3.51011 0.399894 -0.172601 -0.211759 
166 0.148306 0.450018 0.0347414 0.192955 -3.50088 0.319868 0.0695316 -0.273392 
207 0.14893 0.49819 0.0760954 5.46834 -3.51123 0.462104 0.26756 -0.230278 
172 0.201976 0.450855 0.0871898 5.51386 -3.47937 -0.312487 -0.731137 -0.509996 
170 0.24405 0.449587 0.0338248 5.45149 -3.47412 0.767114 -0.277302 -0.19254 
209 0.200019 0.500771 0.0237992 5.09152 -3.51974 -0.425442 -0.100508 0.170007 
176 0.296196 0.451077 0.0832181 5.20461 -3.44881 0.618937 -0.58809 -0.0147162 
174 0.353836 0.448991 0.0295415 5.03375 -3.4312 -1.37169 0.135355 0.993738 
215 0.347376 0.502423 0.0722234 5.21663 -3.4851 0.444586 -0.935592 -0.0226929 
213 0.295802 0.499189 0.023712 5.3736 -3.48517 0.568237 0.325463 -0.022237 
180 0.398446 0.449201 0.0801105 5.67486 -3.46154 -0.538106 0.487843 1.09627 
178 0.440747 0.450659 0.0329442 5.07513 -3.46556 0.987114 -0.420415 -0.726265 
217 0.398274 0.49943 0.0200989 0.625091 -3.48801 -0.442719 0.700068 0.885487 
219 0.446679 0.501527 0.0720839 5.52504 -3.48864 0.0285937 -0.00207274 0.429733 
182 0.545117 0.450006 0.0312419 0.126448 -3.49911 -0.167702 -0.0445785 -0.309814 
184 0.494376 0.44853 0.0816626 5.08299 -3.49634 0.161913 0.41785 -0.532027 
221 0.497569 0.500571 0.0251846 5.3864 -3.50275 -0.360884 0.102023 -0.560348 
223 0.550465 0.498055 0.0708422 5.46109 -3.47585 -0.699988 0.579761 0.496125 
186 0.648827 0.449252 0.028853 0.481245 -3.48696 0.0415009 0.0469257 -0.184573 
188 0.595969 0.446969 0.0802666 0.402487 -3.49017 0.314787 0.709153 -0.163039 
227 0.647977 0.499563 0.0672845 5.1901 -3.48499 0.138182 0.00888164 1.19866 
192 0.696823 0.451503 0.0839189 0.964368 -3.49385 0.163948 -0.425869 -0.940894 
196 0.80717 0.44996 0.0807413 4.6475 -3.48283 -0.31273 -0.111152 0.428741 
200 0.902536 0.448374 0.0865402 5.13612 -3.48894 0.223455 -0.000562116 -0.379791 
235 0.857208 0.501722 0.0753016 5.51245 -3.48839 -0.128443 -0.767484 -0.0720177 
164 0.00153033 0.450256 0.0880942 5.27388 -3.49551 0.0749519 -0.334703 -0.491041 
239 0.954535 0.502114 0.0768923 0.363347 -3.46835 -0.750734 -0.676733 0.117118 
208 0.101968 0.55054 0.0690539 5.20844 -3.49349 -0.395996 -0.289166 -0.395989 
206 0.148988 0.550331 0.0164676 5.89931 -3.51453 -0.0558399 -0.174415 0.205381 
212 0.198369 0.550219 0.0674377 5.45353 -3.50864 0.102117 0.110621 -0.219228 
211 0.250366 0.498366 0.072397 5.44846 -3.49582 -0.357933 0.738631 0.462431 
210 0.248785 0.549653 0.0162724 0.18753 -3.5061 0.181823 0.301569 0.200944 
216 0.302917 0.549798 0.0681155 5.15564 -3.46895 -1.19188 0.0285458 -0.766776 
214 0.35093 0.550771 0.0171101 4.96959 -3.47889 -0.841618 -0.0603363 -0.473335 
220 0.399512 0.55055 0.0644084 5.61086 -3.49947 -0.101436 -0.243175 -0.275757 
218 0.44746 0.550714 0.0150424 0.19841 -3.50497 0.060397 0.0815342 -0.0468739 
224 0.499337 0.554688 0.0653124 0.735537 -3.44328 -0.138809 -1.62048 -0.912098 
222 0.546759 0.550906 0.0129397 4.72331 -3.5117 0.121803 -0.126242 0.395042 
228 0.59848 0.548799 0.064309 0.211644 -3.50231 -0.343656 0.376053 -0.343362 
232 0.697141 0.550718 0.0655529 0.345746 -3.49409 0.575185 -0.387668 -0.238488 
225 0.595678 0.499141 0.0221478 4.89746 -3.50176 -0.0195111 0.0714545 -0.237596 
226 0.649205 0.548963 0.0162984 0.1001 -3.51092 -0.0586544 0.00917182 -0.347254 
231 0.751693 0.499492 0.0765577 0.370133 -3.47556 -0.522383 -0.546665 -0.293473 
236 0.805388 0.544876 0.0718448 5.23635 -3.46894 -0.756227 0.86137 -0.31708 
240 0.900861 0.551864 0.0669101 4.72349 -3.51064 0.242123 -0.211576 0.234533 
204 -0.000116726 0.551503 0.0725455 5.2035 -3.45314 0.157077 -0.57933 -1.42252 
243 0.0483984 0.597124 0.0597428 5.38767 -3.5108 0.737859 0.93982 0.161193 
248 0.0996986 0.650553 0.0535011 5.38626 -3.50419 0.0201916 -0.384446 -0.687961 
245 0.101572 0.598733 0.00934612 5.32056 -3.51119 -0.485604 0.309408 0.299472 
246 0.14394 0.651066 -0.00054805 4.75812 -3.48473 0.716216 -0.516462 0.332203 
247 0.14865 0.601927 0.0584712 5.04445 -3.51046 0.315107 -0.512474 0.29335 
252 0.197327 0.650976 0.0518229 0.0756171 -3.48535 0.276173 -0.139847 -0.213024 
250 0.245501 0.650805 0.999347 0.164306 -3.49685 0.251122 -0.072249 -0.219864 
251 0.245859 0.601606 0.0577565 5.63256 -3.49257 0.547087 -0.374673 0.189383 
249 0.198924 0.601237 0.00982275 5.64607 -3.50273 -0.363095 -0.0232254 -0.347374 
253 0.297064 0.602224 0.0050622 5.57525 -3.49032 -0.0190844 -0.377662 0.408736 
256 0.295121 0.651451 0.0465334 5.31639 -3.49316 0.602293 0.196806 1.15801 
254 0.345397 0.651416 0.997611 0.279383 -3.5129 0.49266 -0.0859965 0.149392 
255 0.346199 0.600238 0.0560677 0.351171 -3.48234 -0.0548842 0.484496 0.582126 
257 0.398009 0.600153 0.00881301 5.28703 -3.46725 -0.4327 0.11723 -0.793417 
260 0.399075 0.647832 0.0467424 0.530767 -3.44898 0.170162 1.28492 0.742799 
258 0.448117 0.650126 0.998945 0.257622 -3.51124 -0.183838 0.587353 -0.219157 
259 0.447791 0.601846 0.0561726 0.0958825 -3.5093 0.155641 -0.263464 -0.0321227 
261 0.496391 0.600822 0.0067469 0.268648 -3.5078 0.236065 -0.213409 0.0430872 
262 0.547178 0.648394 0.997321 0.848765 -3.45113 1.10841 0.41925 0.84548 
263 0.548749 0.601082 0.0562418 0.149676 -3.50448 0.280347 0.098929 -0.348621 
264 0.498518 0.651432 0.0449922 0.569458 -3.47167 0.055046 -0.229444 0.666644 
267 0.648432 0.600796 0.0554708 0.325681 -3.50003 0.245973 -0.110604 0.725498 
268 0.601719 0.651852 0.0472185 5.38205 -3.47749 -0.100384 -0.47096 0.323744 
272 0.701016 0.64849 0.050243 0.15892 -3.50272 0.454538 -0.0975651 0.196982 
265 0.60154 0.598562 0.00931202 5.47985 -3.49664 -0.436883 0.25659 -0.561007 
271 0.753101 0.598059 0.0582596 5.11676 -3.48446 -0.216557 0.0348464 0.300607 
276 0.803595 0.649915 0.0516863 5.26818 -3.50695 -0.49917 -0.0861107 0.274005 
275 0.846763 0.598591 0.0610762 5.16338 -3.49511 0.608601 0.195147 0.0957056 
280 0.900527 0.648929 0.0548221 5.22438 -3.48949 0.188825 0.119401 -0.374729 
244 1.0038 0.648013 0.0544775 5.2592 -3.48092 -0.367387 0.601357 -0.350667 
279 0.951314 0.600428 0.0602022 5.20454 -3.52626 -0.0177949 0.101789 0.1098 
283 0.0503775 0.699505 0.0429631 0.121236 -3.51688 0.194477 -0.0743779 -0.13232 
288 0.0994165 0.749762 0.035531 5.35373 -3.49718 -0.289194 -0.414609 -0.450353 
287 0.151573 0.699219 0.0445687 5.31191 -3.48506 -0.693634 0.229601 -0.423835 
289 0.196143 0.696834 0.991827 5.3879 -3.47201 0.118927 1.16223 0.0950906 
292 0.201517 0.750645 0.0341486 5.04449 -3.50035 -0.322632 -0.477778 -0.31625 
286 0.148729 0.750131 0.983788 5.28318 -3.50101 -0.0437434 -0.336393 -0.0594961 
291 0.246649 0.700429 0.0440879 5.08758 -3.515 -0.132026 0.37058 -0.622261 
290 0.249541 0.749544 0.980476 5.04051 -3.45779 -0.136472 0.212096 0.587042 
295 0.351439 0.69802 0.0429199 4.92886 -3.48728 -0.638838 0.271523 -0.346552 
296 0.300481 0.74678 0.0348849 4.99854 -3.45694 -0.6944 0.659687 -0.795073 
293 0.296973 0.701556 0.992418 5.11417 -3.50344 0.150814 -0.92035 -0.456248 
294 0.347164 0.749372 0.982436 5.4225 -3.49749 -0.0849896 0.591097 0.295207 
297 0.396725 0.701068 0.991628 0.267303 -3.51056 0.222089 -0.0385843 0.0185914 
299 0.450339 0.704906 0.0406316 5.00003 -3.46854 -0.463758 -1.10114 -0.0761569 
300 0.397449 0.751653 0.0328597 4.95895 -3.48979 0.301817 -0.513215 -0.0185001 
303 0.552566 0.699052 0.0417134 0.301558 -3.51008 -0.408149 0.20424 -0.259266 
307 0.656586 0.697855 0.0426043 5.2465 -3.48767 -0.649565 0.13819 0.176501 
311 0.752894 0.698777 0.0457656 5.54278 -3.5135 0.0282634 0.103259 -0.417732 
315 0.852175 0.699738 0.0445965 5.65508 -3.51812 -0.196384 0.186972 0.102784 
316 0.802968 0.749258 0.0323735 5.27173 -3.48068 0.0400197 -0.174666 1.11495 
319 0.952127 0.703144 0.0490602 5.20149 -3.45386 0.143554 -1.36488 -1.64986 
320 0.89942 0.749124 0.0344344 5.18588 -3.49801 0.415821 0.567197 0.225442 
284 0.00185023 0.749941 0.0342142 5.57278 -3.5269 -0.148001 -0.13501 0.0849531 
323 0.0468235 0.800426 0.0230041 4.95194 -3.49254 0.244667 -0.317282 0.306624 
327 0.146031 0.79702 0.0264088 0.523345 -3.50058 0.403464 0.666975 -0.436197 
331 0.249403 0.796378 0.0236561 0.779886 -3.47467 0.220015 0.873634 -0.192883 
329 0.196376 0.79891 0.972845 5.56178 -3.51419 0.178286 -0.0857848 0.273524 
335 0.351586 0.8001 0.0252803 5.29111 -3.48076 -0.928268 -0.169548 -0.665629 
333 0.300461 0.802328 0.971281 4.9338 -3.48399 -0.322738 -0.496244 0.431195 
337 0.396925 0.802879 0.975039 5.24566 -3.48951 0.349441 -0.322384 0.121681 
339 0.450043 0.799748 0.0267365 5.3008 -3.5005 0.255592 0.25306 -0.196113 
304 0.505081 0.753113 0.0358443 0.915456 -3.50051 -0.620077 -0.318244 -0.37809 
343 0.557589 0.800412 0.0283616 5.44437 -3.47443 -1.08131 0.00363692 -0.407818 
308 0.604631 0.749174 0.0358357 0.230504 -3.51241 -0.0889665 -0.440077 -0.373929 
347 0.654339 0.797305 0.0295754 0.289126 -3.51531 0.182866 0.0942095 -0.37472 
312 0.705596 0.747887 0.0329096 5.23723 -3.48338 -0.457338 0.600851 0.999988 
351 0.752374 0.796955 0.0297707 4.99168 -3.50068 0.482613 0.761139 -0.672385 
355 0.850798 0.800262 0.0280534 0.206105 -3.49435 0.297005 0.154825 0.0514091 
359 0.951625 0.800873 0.0252195 5.22863 -3.50462 -0.0612659 -0.13541 0.125723 
363 0.0494934 0.899511 0.0090923 1.57082 -3.48605 0.0923889 -0.0331779 -0.36459 
324 1.00198 0.850886 0.0191992 5.36895 -3.48185 -0.728927 -0.0757485 -0.612226 
328 0.0983003 0.84643 0.0178152 5.43223 -3.4968 -0.0521563 0.467158 -0.193103 
367 0.148901 0.898375 0.00828624 4.60589 -3.46645 -0.697399 0.0710766 -0.276053 
332 0.198561 0.848133 0.013609 0.541257 -3.48374 0.0098971 0.288226 1.03437 
369 0.194927 0.898845 0.958178 5.11855 -3.48028 0.183321 -0.177912 -0.197112 
371 0.242984 0.902338 0.00965702 5.0187 -3.42187 0.667871 -1.07563 -0.543944 
330 0.247528 0.849908 0.965435 0.167123 -3.50708 -0.0221173 0.195531 0.312735 
336 0.303877 0.851189 0.013738 4.99636 -3.43035 -1.45655 -0.298907 0.490401 
373 0.298579 0.900897 0.961853 0.858154 -3.44908 -0.396726 0.926851 -0.356571 
334 0.348687 0.853442 0.966121 0.464517 -3.48225 0.551919 -0.666132 -0.374676 
340 0.397929 0.849923 0.0194104 4.79899 -3.4824 0.764085 0.783904 -0.171931 
375 0.349151 0.898838 0.00947758 4.91316 -3.44131 0.753058 0.529697 0.164159 
377 0.399322 0.902631 0.959922 4.90579 -3.46662 -0.123871 -0.583781 -0.251376 
379 0.446499 0.901112 0.00861118 2.73447 -3.41241 0.54873 -0.615995 0.508315 
344 0.501538 0.850015 0.0174044 0.144395 -3.46939 0.207498 0.0811899 0.162846 
383 0.555767 0.899472 0.00973594 5.43455 -3.47089 -0.325283 -0.243055 -0.155082 
348 0.605718 0.847643 0.0187335 0.257967 -3.48803 -0.210858 0.355345 -0.0170861 
387 0.654664 0.900691 0.0115231 1.70179 -3.44243 0.482262 -0.264544 -0.0274406 
352 0.705191 0.846659 0.0198179 5.27452 -3.49353 0.0460148 0.32739 0.363446 
391 0.752799 0.900878 0.0105326 4.41546 -3.46641 -0.279301 -0.518496 0.454058 
356 0.798096 0.848571 0.0225767 5.25072 -3.49157 0.274909 0.381676 0.284493 
395 0.845839 0.900857 0.00856937 5.86547 -3.44113 0.556771 0.0335626 1.04996 
360 0.901941 0.85252 0.0169798 4.9028 -3.46079 -0.893977 -1.2432 0.524981 
399 0.948195 0.902711 0.0130213 5.71417 -3.43879 1.14602 -0.620818 -1.34484 
3 0.0511991 1.0007 0.0243696 5.09876 -3.48713 -0.445945 -0.418504 -0.0415229 
368 0.096661 0.948734 0.0163178 5.15249 -3.49852 0.136365 -0.010166 0.0629251 
366 0.144283 0.947395 0.965998 0.217107 -3.5104 0.295562 0.332498 0.154272 
11 0.248822 0.997137 0.0221486 4.60148 -3.49086 -0.369442 0.121259 -0.3048 
372 0.196188 0.949333 0.0170454 0.24998 -3.47922 -0.478713 0.423577 -0.323553 
370 0.240947 0.95007 0.967057 5.25759 -3.47126 0.708221 -0.254603 -0.29916 
376 0.298377 0.947687 0.0134536 0.602008 -3.49761 -0.213114 0.114729 -0.349225 
15 0.349919 0.999039 0.0228216 0.421349 -3.49071 -0.825397 0.145996 -0.274288 
13 0.297836 0.996142 0.971918 0.66721 -3.49638 0.0654525 0.42752 0.359525 
374 0.352958 0.951263 0.969193 4.71091 -3.48931 -0.0208242 -0.393724 -0.224308 
17 0.400688 1.00021 0.973766 0.253876 -3.48588 0.0365775 0.153338 0.373221 
19 0.451225 0.997549 0.0238293 0.373266 -3.48247 0.2341 0.172924 0.270356 
380 0.400864 0.952376 0.0182644 0.548889 -3.50316 -0.114888 -0.404953 0.177188 
384 0.50474 0.949802 0.0170839 0.329758 -3.49349 -0.383572 -0.28742 0.200766 
23 0.554565 -0.00286288 0.0235566 5.07393 -3.50717 -0.240977 0.313928 0.490219 
388 0.604117 0.949269 0.016874 5.75163 -3.50631 -0.131837 0.229711 0.313018 
27 0.651519 1.00019 0.0241559 5.1226 -3.49 0.108732 0.209559 0.426531 
386 0.651546 0.951085 0.969528 5.43769 -3.47291 0.541384 -0.175641 -0.660834 
31 0.752813 1.00429 0.0308357 5.40052 -3.4977 -0.0967372 -0.306015 -0.0622982 
392 0.701048 0.951279 0.0186053 0.289826 -3.50841 0.383675 -0.276436 0.383943 
396 0.799533 0.953845 0.0184551 4.70511 -3.51005 0.0711132 -0.595424 0.566521 
35 0.849497 1.00002 0.0284021 5.32089 -3.50774 0.763736 0.149778 -0.230532 
39 0.953716 0.999623 0.027169 5.1331 -3.50765 -0.248391 -0.383403 -0.24307 
400 0.899251 0.950546 0.017977 0.342755 -3.48705 0.060129 -0.440279 0.423538 
364 0.00460386 0.951165 0.0193918 5.41561 -3.4579 -0.747345 0.0054702 -0.838539 
402 0.0502475 0.0472255 0.0832027 5.10857 -3.49427 0.110473 0.858622 0.242052 
408 0.103221 0.051448 0.134425 5.39161 -3.49581 -0.283071 -0.677757 -0.154738 
406 0.152751 0.0471847 0.0817575 5.07788 -3.49929 -0.505135 0.321413 0.107296 
412 0.201356 0.0466896 0.132845 4.95208 -3.51286 -0.0311416 0.811663 0.0427567 
410 0.25049 0.051912 0.0811414 4.67266 -3.46529 -0.491038 -0.936164 0.663499 
416 0.299771 0.0519046 0.131172 5.04196 -3.505 -0.318027 -0.599403 -0.366064 
414 0.345584 0.0445098 0.0814725 4.41756 -3.46863 0.369389 0.84881 -0.784534 
420 0.399063 0.04618 0.131737 0.379377 -3.51542 -0.538505 0.151766 -0.126404 
418 0.441578 0.0441304 0.0821444 5.2007 -3.47202 1.17034 0.744384 0.0777036 
424 0.500023 0.0480564 0.130845 0.358261 -3.49289 -0.369016 -0.160844 0.169066 
422 0.548378 0.0510013 0.0849871 5.72141 -3.48819 0.473944 -0.630656 -0.557903 
426 0.649879 0.0537674 0.0831641 0.951328 -3.51071 0.0696766 -1.20037 0.386943 
428 0.600293 0.0485345 0.131272 0.291107 -3.47385 -0.596857 0.232507 0.511221 
432 0.700942 0.0466767 0.132343 5.11723 -3.50723 -0.194914 -0.20055 0.407564 
430 0.752706 0.050253 0.084509 0.281319 -3.49038 0.524291 -0.947547 -0.292159 
436 0.798555 0.0506867 0.134911 0.149498 -3.49983 0.340913 -0.305465 0.189045 
434 0.851712 0.0507208 0.0867279 0.245265 -3.49963 0.288899 -0.0171772 -0.288604 
440 0.902484 0.048711 0.136518 0.134304 -3.46556 -0.140152 0.38234 -0.145542 
404 0.00459884 0.0509153 0.13549 5.5486 -3.4956 -0.0302088 -0.234241 -0.542128 
438 0.953288 0.0514788 0.0865904 5.19926 -3.49609 0.21415 -0.627078 -0.244819 
442 0.0509268 0.149763 0.0989214 5.34262 -3.4705 0.527353 -0.388926 0.947583 
443 0.0530331 0.10053 0.143959 0.168696 -3.51631 -0.0934046 0.0540584 -0.29814 
445 0.102462 0.0997225 0.0945185 5.18619 -3.4721 -0.375836 -0.308288 -0.744103 
448 0.0968319 0.151423 0.150694 5.45853 -3.48851 0.953389 -0.280753 0.0358914 
446 0.148463 0.147662 0.103336 5.32165 -3.49247 0.325061 0.0663928 -0.359914 
447 0.150194 0.0974718 0.145642 5.48229 -3.45089 0.458139 0.735767 -0.746259 
449 0.199989 0.0980351 0.0888754 5.34826 -3.48736 -0.257509 -0.0787971 0.74251 
452 0.201682 0.14594 0.153264 5.49626 -3.45478 -0.655413 0.72951 -1.06335 
451 0.249536 0.0983007 0.142269 0.305187 -3.48894 -0.176806 0.23873 -0.597189 
450 0.248805 0.147794 0.0955102 5.49651 -3.49963 -0.291943 0.0051684 0.938098 
453 0.297941 0.0990597 0.0866587 5.40239 -3.47884 0.357497 0.1547 0.652616 
456 0.299246 0.147212 0.146493 5.36525 -3.50438 -0.136773 0.345784 0.149399 
454 0.348532 0.150492 0.098041 5.44095 -3.49606 -0.310962 -0.570441 -0.692525 
455 0.349289 0.0978131 0.13708 5.58732 -3.4902 -0.383949 0.145092 0.399615 
457 0.392988 0.0965612 0.0893439 5.45621 -3.48172 0.664484 0.0780968 -0.37792 
460 0.394259 0.147753 0.145711 4.9589 -3.48705 0.953743 0.206912 -0.313884 
458 0.446912 0.148576 0.095697 5.66936 -3.49762 -0.519318 -0.344873 0.269849 
459 0.446966 0.0979617 0.140134 5.2024 -3.46064 0.215777 0.153653 -1.05018 
464 0.496251 0.14596 0.144131 5.46684 -3.49402 -0.237849 0.825727 0.520394 
461 0.493358 0.0948714 0.0868349 0.99564 -3.4747 0.212563 0.41307 0.301502 
462 0.546115 0.146116 0.0978995 0.501151 -3.45412 0.292989 0.400699 -0.836015 
463 0.545488 0.0984502 0.140581 0.401479 -3.47902 0.594218 -0.207877 -0.377255 
465 0.595968 0.0988289 0.0890453 0.434197 -3.49409 0.0159757 0.41101 -0.225767 
466 0.650088 0.145523 0.0958092 5.05246 -3.45892 -0.325647 0.0778659 0.338954 
467 0.645927 0.0967778 0.135106 5.13894 -3.48909 0.746258 0.0946331 0.867049 
468 0.601587 0.147373 0.145585 0.666593 -3.50751 -0.651263 0.241956 0.0117096 
469 0.705875 0.0955107 0.0912816 5.00701 -3.44751 -0.80628 1.05122 -0.21251 
472 0.697959 0.147955 0.150792 5.2388 -3.47456 0.107065 0.391496 -0.799577 
471 0.74662 0.0990462 0.140977 0.392837 -3.4989 0.523012 0.255891 0.416849 
470 0.749732 0.151155 0.0999633 0.423844 -3.49934 0.0206118 -0.465521 0.0129602 
473 0.801212 0.0991202 0.094257 5.13071 -3.49269 0.390809 0.419556 -0.251718 
476 0.802046 0.15105 0.146161 0.894424 -3.44958 -0.636096 -0.345629 1.53351 
474 0.855017 0.149178 0.101523 5.18769 -3.49091 0.0205933 0.170358 -0.279556 
475 0.848735 0.102553 0.144897 0.712086 -3.45416 1.1576 -1.05011 -0.132063 
477 0.904607 0.0992636 0.0926048 5.43309 -3.47657 -0.347389 -0.128106 0.584676 
444 0.00124114 0.148389 0.150704 5.29411 -3.44618 0.350593 0.36791 0.613155 
480 0.903664 0.152122 0.154606 4.99845 -3.47317 -0.0341395 -0.590211 -0.393922 
441 0.00206129 0.101349 0.0920626 5.58868 -3.49988 0.333457 -0.486285 0.193448 
478 0.950706 0.14998 0.10178 5.4301 -3.50693 0.0729405 -0.321869 0.166625 
479 0.959257 0.0980809 0.143154 5.14718 -3.45153 -1.62913 0.45823 0.294401 
483 0.0522565 0.19967 0.161031 0.1329 -3.50238 -0.00771181 -0.13502 0.0838531 
485 0.102591 0.201308 0.10832 5.20799 -3.48323 -0.253504 -0.966417 0.736544 
488 0.100072 0.24975 0.171645 0.327325 -3.49537 0.585085 -0.141907 -0.142674 
487 0.151158 0.200294 0.161932 5.53795 -3.49116 0.102506 -0.279105 -0.329053 
489 0.19711 0.19682 0.110335 5.4163 -3.49895 0.355836 -0.23052 -0.00870428 
492 0.199687 0.250112 0.169728 5.45614 -3.521 0.431628 -0.367763 -0.259883 
491 0.248452 0.198497 0.16005 5.43081 -3.47305 0.18488 -0.0681307 -0.542922 
493 0.298013 0.195761 0.102658 5.25536 -3.46393 -0.142768 0.563324 0.798305 
495 0.352286 0.197107 0.155447 5.36982 -3.45918 -0.699877 0.451115 -0.202233 
497 0.396521 0.198792 0.102525 5.53619 -3.51694 0.181746 -0.299862 0.577216 
500 0.405 0.249729 0.16319 5.3766 -3.44369 -0.868045 -0.169081 0.124265 
499 0.44399 0.199265 0.153532 5.34035 -3.44841 1.07261 -0.967318 -0.572367 
498 0.44404 0.249209 0.110341 5.07555 -3.4949 0.666869 -0.474995 0.127325 
501 0.498853 0.19826 0.100047 4.88939 -3.46227 -0.98947 -0.0863726 1.30996 
503 0.545658 0.197431 0.150235 4.79355 -3.4968 -0.0250116 0.119142 0.158537 
502 0.549196 0.248683 0.108272 5.023 -3.47134 -0.833749 -0.328398 1.33603 
504 0.495081 0.24997 0.159491 0.430883 -3.4905 0.331134 -0.191278 0.0602655 
505 0.598601 0.196971 0.102236 4.81218 -3.51295 -0.0848278 0.121664 0.393444 
507 0.645649 0.199381 0.15346 5.33101 -3.4707 0.0245074 -0.114177 0.448721 
506 0.64791 0.249079 0.114798 5.55608 -3.4924 -0.249753 0.200237 0.0640697 
508 0.591848 0.247131 0.163107 5.44641 -3.47938 0.44149 0.551889 -0.648045 
509 0.694485 0.197974 0.108934 5.01646 -3.47444 1.07033 -0.133388 -0.486981 
511 0.749621 0.199142 0.15744 0.114873 -3.49378 -0.0255173 0.132018 -0.0828538 
512 0.695726 0.249119 0.165589 0.391236 -3.49839 -0.0423509 -0.0993557 -0.413369 
510 0.753015 0.248532 0.116809 0.435745 -3.48863 -0.735706 0.148545 0.116143 
516 0.802785 0.250779 0.166202 5.48838 -3.50236 -0.141959 -0.310044 -0.252481 
513 0.803514 0.198503 0.107589 5.23701 -3.48694 -0.196397 0.440354 -0.018841 
515 0.852817 0.202733 0.161451 4.96459 -3.49778 -0.304173 -0.543927 -0.709952 
517 0.902677 0.201227 0.109821 0.316724 -3.48171 -0.260265 -0.602132 0.586929 
520 0.900792 0.251521 0.170636 5.80323 -3.48924 0.191563 -0.103447 -0.364022 
514 0.851853 0.248605 0.115091 5.30847 -3.50554 0.22365 0.0893137 0.591704 
481 -0.00142808 0.196878 0.114081 5.06317 -3.48412 0.862347 0.968098 -1.08703 