ITEM: TIMESTEP
2000
ITEM: NUMBER OF ATOMS
4000
ITEM: BOX BOUNDS pp pp pp
3.5316457376054085e+00 3.2568354262394621e+01
-1.8152501679423949e+00 3.7915250167942474e+01
-2.1649398215497833e+00 3.8264939821550030e+01
ITEM: ATOMS id xs ys zs c_csym c_peratom fx fy fz 
4 -0.00151522 0.0534606 0.0294791 5.10234 -3.48128 -0.389398 -0.592378 0.684183 
7 0.155541 0.00338374 0.0231968 4.73919 -3.45781 -0.915955 -0.322882 -0.874643 
8 0.0984153 0.0531144 0.0303988 5.29485 -3.49966 0.165516 -0.441008 0.101078 
12 0.20579 0.0529419 0.0297184 0.776265 -3.50115 -0.494855 -0.228847 0.754644 
9 0.200429 0.998078 0.972579 0.444488 -3.50025 0.0555425 0.411985 -0.132703 
16 0.297792 0.0494528 0.0299803 0.634501 -3.49865 0.0811276 0.451341 0.704272 
14 0.343994 0.0535639 0.982022 4.97248 -3.46413 1.15633 -0.559948 -0.553922 
20 0.401986 0.0498371 0.0305558 0.460643 -3.49459 -0.398561 0.96514 -0.673523 
24 0.493511 0.049537 0.0310961 0.551197 -3.50539 0.748077 0.422497 -0.615357 
28 0.598908 0.0511556 0.0279376 0.341739 -3.48882 0.399606 -0.867109 1.06779 
32 0.701887 0.0502545 0.025909 0.726026 -3.48884 -0.0580468 -0.588271 1.23065 
36 0.795545 0.0487938 0.0303446 0.355488 -3.50156 -0.258096 0.0469536 0.00565898 
40 0.89886 0.0522067 0.0309504 0.198574 -3.49282 -0.537627 -1.02434 -0.226462 
43 0.0457027 0.101718 0.0381245 5.00482 -3.50161 0.679549 -0.0992223 0.156655 
48 0.096459 0.15121 0.0469915 0.326521 -3.50978 0.365966 -0.0571424 0.00706415 
47 0.149188 0.100605 0.0386073 5.5107 -3.49842 0.409893 0.0374578 0.0603871 
52 0.197739 0.148898 0.0489806 4.64707 -3.49824 0.510883 0.516484 0.308293 
51 0.252101 0.101654 0.0416185 0.472456 -3.49698 0.148094 0.112077 0.0975361 
50 0.252278 0.15315 0.00482331 5.13411 -3.48073 -0.0028181 0.00641851 -1.05841 
53 0.296042 0.101082 0.989979 4.90388 -3.4955 -0.103185 -0.00739391 0.636865 
56 0.307055 0.150095 0.0507183 5.14804 -3.49345 -1.02682 -0.504522 0.201045 
55 0.349634 0.0996051 0.0372197 0.559751 -3.48394 -0.0315185 -0.487192 0.230436 
54 0.349439 0.150236 0.000256319 0.373805 -3.48363 0.135047 -0.286757 -0.475345 
57 0.404047 0.101155 0.988629 4.81352 -3.51131 -0.567412 -0.0292099 0.275348 
60 0.397926 0.149768 0.0479341 0.355575 -3.50647 0.463258 0.428555 0.161574 
58 0.454561 0.15259 0.000782616 4.76025 -3.46607 -0.694644 0.00152766 -0.598862 
59 0.448671 0.101214 0.0390842 0.318602 -3.50736 0.0231992 -0.0700464 0.724941 
61 0.49662 0.102443 0.990653 4.4681 -3.51047 -0.112169 -1.00707 -0.0183202 
63 0.548622 0.0977201 0.03974 5.42143 -3.5123 -0.203636 0.00360049 -0.017058 
64 0.500895 0.148901 0.0476863 5.09261 -3.50166 -0.0615553 0.0053666 0.541726 
68 0.59785 0.147395 0.0505167 0.459079 -3.49701 0.678996 -0.125222 -0.385628 
62 0.551524 0.145784 0.998696 0.798267 -3.49306 -0.125715 0.774796 0.0221268 
66 0.651054 0.151273 -0.0020817 5.10769 -3.50286 -0.196917 -0.569739 0.337033 
67 0.653401 0.0980821 0.0396256 0.629421 -3.50928 -0.355268 0.993851 -0.375533 
72 0.700932 0.152662 0.0476897 0.644937 -3.41886 -0.319456 -1.60381 1.16571 
69 0.700589 0.10201 0.987454 0.548295 -3.5055 -0.0237468 -0.111944 0.0981963 
71 0.746433 0.100772 0.0408031 0.484812 -3.5074 0.134564 -0.417924 -0.0506836 
76 0.798777 0.14999 0.0477335 0.168783 -3.48854 0.225935 -0.052633 0.821377 
75 0.847065 0.0991095 0.0384321 5.0584 -3.51559 0.131775 0.328559 0.249466 
80 0.896948 0.14957 0.0517996 0.455173 -3.47624 0.494078 0.192456 -1.01328 
44 0.000313332 0.152412 0.0487749 5.16691 -3.49901 -0.215468 -0.47593 0.0843684 
79 0.945441 0.10132 0.0378051 0.45573 -3.47657 0.821013 -0.574936 1.0964 
83 0.0475213 0.201575 0.060183 0.378363 -3.48963 0.587827 0.178515 -0.875811 
87 0.150716 0.197947 0.0558535 5.15011 -3.46263 -0.712164 0.511103 1.06519 
91 0.252395 0.198312 0.0607091 4.97305 -3.5021 -0.0825201 0.023945 -0.214244 
89 0.203189 0.201797 0.0109046 5.35166 -3.50769 -0.315142 -0.310906 0.0928073 
95 0.350646 0.2016 0.0604179 0.2736 -3.48493 -0.0812511 -0.571281 -0.478034 
93 0.303801 0.20057 0.0101314 0.211005 -3.48349 0.00700029 -0.563891 -0.0837945 
100 0.397927 0.247942 0.0705718 0.461558 -3.46915 0.848987 0.583231 -0.53168 
99 0.453784 0.200647 0.058954 0.398541 -3.4866 -0.625949 -0.550951 0.0368398 
98 0.452373 0.246708 0.0197056 0.471387 -3.50293 -0.294426 0.462951 -0.083614 
97 0.398307 0.198892 0.00707082 0.591718 -3.49803 0.415645 0.256257 0.857337 
103 0.551947 0.19915 0.0594622 0.201217 -3.49564 -0.322628 0.15924 0.172722 
102 0.552756 0.251383 0.0191358 0.45763 -3.47239 -0.334755 -0.415644 0.130047 
104 0.503535 0.247917 0.0692605 0.281608 -3.50219 -0.155096 0.414628 0.393058 
101 0.505081 0.199479 0.00914554 5.17033 -3.50539 0.140177 0.414212 -0.256697 
105 0.598644 0.198354 0.0114266 4.7864 -3.50466 -0.196558 -0.0473553 -0.425271 
107 0.652588 0.195716 0.0570793 1.23687 -3.45376 -0.941239 1.52623 0.480044 
108 0.60003 0.250511 0.0655328 0.984972 -3.4559 0.770041 -0.77664 1.37482 
109 0.703596 0.200556 0.0082074 0.590606 -3.48286 -0.0777331 -0.122254 -0.334461 
106 0.653643 0.247825 0.0185226 0.740653 -3.48841 -0.577858 0.351793 -0.124372 
112 0.695248 0.250661 0.0700866 0.864657 -3.47109 0.318305 -0.170645 0.0864998 
111 0.748493 0.201177 0.0597723 0.257944 -3.50715 0.244703 -0.063836 -0.19582 
116 0.798298 0.250269 0.0682165 0.154859 -3.49793 0.137459 -0.735991 0.431622 
115 0.849176 0.198927 0.0578884 0.194378 -3.50067 -0.34256 0.316559 0.610619 
120 0.89617 0.251714 0.0689601 0.477076 -3.5008 0.36716 -0.988238 0.0180298 
119 0.951638 0.199771 0.0599381 0.297684 -3.48889 -0.941225 -0.511102 0.4063 
123 0.0475024 0.299108 0.0764986 5.13031 -3.50496 0.128549 0.460351 0.40671 
88 0.0988026 0.253696 0.0706215 4.95397 -3.47059 0.115528 -1.43195 -0.304344 
127 0.15338 0.297384 0.080468 0.7888 -3.47561 -0.82533 1.24548 -0.565861 
92 0.196698 0.248189 0.0689886 5.09644 -3.48702 0.798544 -0.507504 0.106011 
129 0.198049 0.297451 0.0310363 0.567662 -3.47297 0.863601 -0.26889 -0.787579 
131 0.247783 0.298687 0.0783357 0.321958 -3.51009 0.363934 -0.268946 0.161724 
90 0.257353 0.247213 0.0203643 5.06036 -3.48881 -0.663597 0.605522 -0.0342833 
96 0.303286 0.248988 0.0726033 0.746197 -3.45911 -0.625952 0.774637 -1.0941 
94 0.34831 0.250006 0.0171029 0.664152 -3.50232 0.138743 0.192228 0.486202 
135 0.352641 0.299562 0.0811514 0.422683 -3.4874 -0.734162 -0.0228075 -0.322492 
133 0.29932 0.29872 0.0278329 0.29945 -3.49374 0.341717 0.110601 0.913171 
137 0.40038 0.297376 0.030864 0.279299 -3.50935 0.0861429 0.175839 -0.0975766 
139 0.452505 0.299976 0.0791022 0.363667 -3.48763 -0.101557 -0.771572 0.415162 
143 0.554196 0.299938 0.0805698 0.285773 -3.48664 -0.424865 -0.0753983 0.204981 
141 0.502681 0.29648 0.0291526 5.1325 -3.48583 -0.407264 0.259089 0.598842 
147 0.651492 0.300112 0.082655 0.439496 -3.48771 -0.0553316 0.365863 -0.435763 
145 0.605102 0.30097 0.0334813 1.02132 -3.46631 -0.120259 -0.156102 -0.986482 
151 0.752658 0.301118 0.0788359 0.314809 -3.49761 -0.286258 -0.427069 0.297983 
155 0.847013 0.297025 0.0797899 0.771478 -3.46508 0.696771 1.23384 -0.127466 
84 1.00004 0.250482 0.0702491 5.20662 -3.50257 -0.319201 -0.357599 0.302182 
159 0.94819 0.299817 0.0789038 0.17982 -3.5128 -0.137077 -0.0178334 -0.233858 
163 0.0484391 0.398946 0.0950562 5.47887 -3.43512 -0.042275 0.273753 -0.0957199 
128 0.1002 0.347714 0.0842443 5.19129 -3.49065 0.3305 -0.208183 0.546895 
167 0.149132 0.401093 0.0980231 4.79755 -3.46429 0.0298873 -0.147781 0.1145 
132 0.199615 0.348756 0.0891549 0.186553 -3.48783 0.286039 0.454026 0.0177259 
171 0.251432 0.40321 0.0996745 4.53765 -3.41874 -0.413369 -0.838257 -0.758903 
169 0.203899 0.399612 0.048722 4.66767 -3.49601 -0.473496 0.295515 0.255094 
130 0.251147 0.35014 0.0393542 0.288137 -3.48427 -0.859674 -0.687354 -0.76344 
136 0.295106 0.347467 0.0883948 0.95461 -3.42263 0.549133 1.79304 0.0201729 
134 0.34852 0.348628 0.0410156 0.225223 -3.49397 0.323368 0.115332 -0.39148 
175 0.351906 0.399686 0.102896 5.38653 -3.4413 -0.536351 -0.315457 -1.1727 
173 0.301927 0.401154 0.0462537 4.4627 -3.43895 0.177974 -0.653214 1.56117 
140 0.399724 0.347552 0.0917813 0.338876 -3.50188 -0.0835771 0.603061 -0.755317 
177 0.401069 0.399991 0.0486074 5.42225 -3.4583 -0.226692 -0.482941 0.272684 
179 0.451229 0.398632 0.0974183 4.79401 -3.44032 0.00792428 -0.29273 -0.0603919 
138 0.45131 0.349901 0.0411624 0.30935 -3.49084 -0.233795 -0.178394 0.0395939 
144 0.49923 0.346354 0.0918597 0.507509 -3.50717 0.531742 0.685309 -0.270234 
142 0.550295 0.346157 0.0409627 4.84703 -3.48244 -0.0939614 1.07935 -0.355868 
181 0.503543 0.396097 0.0502023 4.5319 -3.50453 -0.0247871 0.467671 0.101164 
183 0.547909 0.397423 0.102646 4.42946 -3.45221 0.283321 -0.219931 -0.421966 
146 0.654138 0.349956 0.0404478 0.333912 -3.51078 0.0481473 0.0544263 0.106417 
148 0.60068 0.35241 0.0913096 0.563323 -3.51209 -0.0128004 -0.99968 -0.154993 
185 0.596973 0.399165 0.050019 5.21941 -3.46196 0.416862 -0.0547202 0.450015 
187 0.651311 0.399124 0.104313 5.39593 -3.39989 -0.014381 0.684734 -1.03575 
152 0.702485 0.349121 0.0907739 0.23182 -3.50454 -0.342212 0.146034 0.275727 
191 0.750041 0.399952 0.100077 4.47916 -3.47159 0.367057 0.116945 0.217357 
156 0.800125 0.350985 0.0897602 0.200482 -3.51454 0.137855 -0.0445182 -0.18879 
160 0.900726 0.350899 0.0878622 0.244779 -3.48068 -0.342826 -1.61507 0.202806 
195 0.848753 0.400253 0.0973398 4.34924 -3.50527 0.331393 0.440031 -0.00268327 
124 -0.00242411 0.350359 0.0859165 5.52286 -3.49941 0.00605763 0.239067 0.0918975 
199 0.943184 0.402346 0.0962888 4.25272 -3.46083 0.830888 -1.00892 0.335944 
161 -0.00575447 0.403592 0.047044 5.62346 -3.46936 0.790296 -0.758299 -0.120376 
168 0.100717 0.452267 0.0839184 5.17338 -3.47645 -0.320796 -0.499551 0.239712 
203 0.0443756 0.502435 0.0737426 4.83317 -3.47992 0.86984 -0.396208 0.760453 
205 0.103993 0.503022 0.0270253 5.37058 -3.47745 -0.0501913 -0.325474 0.555722 
166 0.155469 0.449047 0.0355315 0.605059 -3.4584 -0.519827 0.490253 1.19091 
207 0.150996 0.500691 0.0772065 5.31953 -3.50909 -0.076864 -0.258653 -0.22216 
172 0.198231 0.453326 0.0890016 0.645925 -3.50558 0.386436 -0.653245 -0.185613 
170 0.254143 0.448981 0.0392912 0.275186 -3.49348 -0.362256 0.301333 0.166092 
209 0.203209 0.500486 0.0292103 0.230425 -3.49079 0.466466 0.42725 0.211208 
176 0.302326 0.449478 0.0914478 5.10459 -3.50572 0.163807 -0.158495 -0.243315 
174 0.349529 0.448657 0.0397814 0.330876 -3.49112 0.273969 0.844986 0.753901 
215 0.350054 0.500003 0.0814863 0.272139 -3.45033 0.204046 -0.0152132 -0.591621 
213 0.300044 0.501178 0.0270988 0.610846 -3.49136 0.365007 -0.011798 0.765105 
180 0.401399 0.446249 0.0925527 5.43185 -3.49272 -0.0967914 0.767514 -0.23551 
178 0.454202 0.449186 0.0438283 5.12928 -3.50436 0.163775 0.25733 -0.21349 
217 0.403845 0.499572 0.0295687 0.237282 -3.49522 -0.0152441 0.0346798 0.892744 
219 0.450153 0.499567 0.0852603 0.674495 -3.46718 0.487673 -0.240451 -0.655072 
182 0.547688 0.448939 0.0408154 0.505053 -3.50201 0.484097 -0.314864 0.506165 
184 0.505385 0.447296 0.0930395 4.90498 -3.48309 -0.377065 0.391212 -0.610393 
221 0.505106 0.499596 0.0324566 0.224748 -3.47643 -0.584818 -0.365345 -0.15595 
223 0.552386 0.500114 0.0812202 0.41942 -3.48891 -0.300392 -0.72563 0.336213 
186 0.648252 0.445894 0.0417369 0.660714 -3.49428 0.53387 0.565493 0.0917041 
188 0.600588 0.447157 0.0928018 0.295056 -3.51016 -0.325864 0.275868 -0.244776 
227 0.650539 0.498002 0.083302 0.174053 -3.50904 0.120569 0.237715 -0.123042 
192 0.70446 0.451673 0.0906214 4.91386 -3.474 -0.512535 -0.863064 0.0873927 
196 0.801119 0.452137 0.0901186 0.218443 -3.48558 -0.200423 -0.957161 -0.332711 
200 0.898099 0.451362 0.0874514 0.209033 -3.48812 0.0350634 0.293905 0.20364 
235 0.845865 0.500319 0.0818798 5.36176 -3.47458 0.72024 0.00442389 -0.424075 
164 -0.00505082 0.451438 0.0855804 0.345106 -3.48229 0.634655 -0.210902 -0.345711 
239 0.950933 0.501902 0.0767748 0.513844 -3.47635 -0.655889 -0.746823 -0.378409 
208 0.100067 0.550057 0.0689908 0.157641 -3.51693 0.133284 0.252013 -0.200892 
206 0.157317 0.551604 0.022554 4.85195 -3.4923 -0.625437 -0.172179 -1.02965 
212 0.198829 0.54955 0.0720793 5.02479 -3.443 0.720872 -0.361124 -0.495211 
211 0.254131 0.496298 0.0799274 1.16023 -3.47853 -0.205578 0.905115 -0.165707 
210 0.254864 0.553091 0.018734 4.89959 -3.47122 -0.456164 -0.598737 0.512479 
216 0.301607 0.552057 0.0705049 5.74045 -3.49314 -0.274526 -0.694451 -0.14588 
214 0.355833 0.548592 0.0194514 0.297319 -3.48046 -0.431417 0.339164 0.383742 
220 0.408284 0.551718 0.0718872 5.02165 -3.46972 -0.734384 -1.03764 -0.514892 
218 0.456944 0.550027 0.0202501 0.317178 -3.50044 -0.0612788 -0.270008 0.30363 
224 0.502717 0.54892 0.0726088 0.0865871 -3.50687 -0.265697 -0.211672 0.183651 
222 0.551118 0.549437 0.0236046 0.36243 -3.48895 0.0931624 -0.33407 -0.602845 
228 0.603041 0.546217 0.0729192 0.382778 -3.48593 -0.262817 0.0619677 -0.28848 
232 0.698174 0.550827 0.0718716 0.292331 -3.48083 0.119257 -0.737554 0.249788 
225 0.600166 0.495473 0.032913 0.471864 -3.49152 0.271471 0.546616 -0.271279 
226 0.653196 0.547695 0.0197624 0.548834 -3.47131 -0.187679 -0.226282 0.314813 
231 0.750084 0.499379 0.0812307 0.140794 -3.50302 0.214285 0.719132 0.292867 
236 0.800026 0.550492 0.0706896 0.274661 -3.49181 -0.617511 -0.253436 -0.194664 
240 0.896174 0.548166 0.0701256 0.519538 -3.49787 0.0903636 0.129922 -0.618565 
204 -0.00130781 0.552036 0.0652614 0.508897 -3.5073 -0.0440015 0.435829 0.392471 
243 0.0501133 0.601553 0.0619129 5.28484 -3.49395 -0.084116 0.182946 -0.676226 
248 0.102193 0.652481 0.0517664 0.326094 -3.47622 -0.387665 -1.21252 -0.20058 
245 0.10332 0.601422 0.0103546 0.224669 -3.47963 -0.211463 0.183322 0.6632 
246 0.147665 0.650862 1.00034 5.12025 -3.48633 0.575166 0.176698 -0.0477243 
247 0.155616 0.601098 0.0621903 0.522993 -3.4988 -0.22662 -0.0428683 -0.0277326 
252 0.201816 0.651748 0.0504016 0.303822 -3.50278 0.0435787 -0.108049 -0.0563778 
250 0.256261 0.652017 0.00283102 5.35638 -3.50938 -0.380045 -0.582361 -0.106866 
251 0.24884 0.59935 0.0591405 0.607 -3.48654 0.112286 0.573334 1.05818 
249 0.203496 0.600765 0.0112878 0.189433 -3.48845 -0.260363 0.524488 -0.405806 
253 0.305611 0.600356 0.0118475 0.250894 -3.48969 -0.132853 -0.0142135 -0.377434 
256 0.303803 0.649386 0.0532199 0.229482 -3.49483 -0.352812 0.235807 -0.222755 
254 0.358483 0.654516 1.00579 1.29728 -3.46308 -0.143876 -1.36659 -0.292742 
255 0.348774 0.59794 0.0602936 5.44493 -3.47326 1.01419 0.508216 0.524801 
257 0.407343 0.596956 0.0134254 0.826935 -3.48059 -0.426616 0.873345 0.159809 
260 0.407262 0.649107 0.0546605 0.565003 -3.49259 -0.319265 -0.435537 -0.215982 
258 0.452456 0.649925 1.00228 0.124725 -3.51334 -0.290322 -0.271346 -0.148714 
259 0.454785 0.598707 0.063443 0.209447 -3.4982 0.257939 0.402594 -0.161941 
261 0.504145 0.599427 0.0107324 0.19573 -3.49614 -0.329713 0.318352 0.318681 
262 0.548774 0.649335 -0.00158577 0.385649 -3.49392 0.491406 0.115662 0.298902 
263 0.551738 0.597889 0.0622752 0.0934939 -3.49425 0.454842 0.305826 0.237987 
264 0.503047 0.649561 0.0519028 0.0655976 -3.50198 0.0460884 -0.201465 0.0805501 
267 0.647628 0.594887 0.0604916 0.749071 -3.47667 -0.38648 0.992343 0.203141 
268 0.599064 0.65015 0.050035 0.366054 -3.43875 -0.672945 -1.02203 -1.12797 
272 0.693498 0.648495 0.0514912 0.268701 -3.50726 0.463574 0.170108 0.0425828 
265 0.601443 0.597582 0.0107442 0.194221 -3.51412 -0.190397 0.141326 -0.208511 
271 0.744992 0.599109 0.0603597 0.244229 -3.49569 0.481896 0.224006 0.262114 
276 0.795563 0.648541 0.0512564 0.111375 -3.4955 -0.0311933 -0.421558 -0.0641641 
275 0.84844 0.597548 0.060286 0.393522 -3.47831 -0.327966 0.310148 -0.431698 
280 0.896809 0.651195 0.0516033 0.43154 -3.49707 -0.0830382 -0.565477 -0.930778 
244 -0.00112908 0.652663 0.0496602 5.50367 -3.47842 -0.435013 -0.602666 -0.0651269 
279 0.943676 0.598836 0.058044 5.09542 -3.4793 0.837275 0.889134 0.257579 
283 0.0509482 0.69854 0.043248 4.99535 -3.50516 -0.242693 0.297162 -0.387061 
288 0.0975691 0.748429 0.03142 0.17272 -3.49977 0.216836 0.0327226 0.0578204 
287 0.146434 0.698291 0.0408452 0.514442 -3.48463 0.858931 0.860788 0.253972 
289 0.200788 0.700178 0.993985 5.30978 -3.48078 0.237911 0.312815 -0.440695 
292 0.199403 0.750481 0.0337223 5.20702 -3.49464 0.511172 -0.613449 -0.281094 
286 0.153952 0.750339 0.981965 0.246992 -3.48196 -0.483437 -0.257627 -0.0423218 
291 0.25082 0.702229 0.0401901 0.640005 -3.47589 0.440375 -0.20668 0.574422 
290 0.256634 0.753806 0.981847 0.881422 -3.48298 0.207669 -0.722703 0.820359 
295 0.357831 0.700949 0.0463822 4.3122 -3.48336 -0.249175 -0.0293028 -0.522475 
296 0.307472 0.752383 0.0334976 5.12634 -3.48034 -0.809077 -0.830188 0.039062 
293 0.304681 0.699034 0.995313 0.726713 -3.46222 -0.0658975 0.407873 0.124531 
294 0.348153 0.746264 0.980081 1.66358 -3.47041 0.476273 0.970908 0.792255 
297 0.400471 0.700743 0.990957 0.569384 -3.47821 0.781824 0.822253 0.309332 
299 0.450595 0.700489 0.0419134 0.226681 -3.50322 0.0814413 -0.0780937 -0.285978 
300 0.40162 0.751709 0.0324832 0.242635 -3.48924 0.281455 -0.235278 -0.349235 
303 0.549351 0.699383 0.0396831 0.166457 -3.50348 0.263946 0.770629 0.400117 
307 0.64366 0.697258 0.0409729 0.551422 -3.47488 0.403155 0.928058 0.213072 
311 0.740283 0.69918 0.0424603 0.709495 -3.47464 0.702709 -0.0761351 -0.580407 
315 0.844493 0.697174 0.0407724 0.330875 -3.49385 -0.171933 0.604607 -0.0432616 
316 0.796233 0.750267 0.0282292 0.29288 -3.48751 -0.301857 -0.239697 0.343025 
319 0.944861 0.698941 0.039484 5.27534 -3.5087 0.156372 0.302953 0.0662011 
320 0.892034 0.747871 0.0285798 4.71607 -3.50167 0.567395 -0.120311 -0.0326569 
284 0.000179658 0.746865 0.0324394 5.00915 -3.49669 -0.270867 0.377345 -0.149507 
323 0.0510668 0.799769 0.0214708 0.398213 -3.49085 -0.382922 -0.348133 0.223296 
327 0.14749 0.796274 0.0203938 0.923509 -3.45589 0.806291 1.46368 1.3158 
331 0.252206 0.801607 0.0251397 0.606041 -3.47822 0.211297 -0.805814 -0.859416 
329 0.204232 0.799288 0.972997 0.259438 -3.48974 -0.404485 0.442451 0.60434 
335 0.352799 0.797756 0.0201305 0.700521 -3.46642 0.270827 0.428222 0.0102984 
333 0.307241 0.802342 0.971954 0.854006 -3.48826 -0.905543 -0.406346 -0.0344379 
337 0.398366 0.801267 0.970254 0.579215 -3.50655 0.295362 -0.681138 -0.0681002 
339 0.44906 0.802192 0.0208826 0.265323 -3.49464 -0.0554057 -0.382885 -0.477045 
304 0.498354 0.749602 0.0317276 0.244899 -3.48378 0.495596 0.127084 0.000729402 
343 0.549537 0.801626 0.0189416 0.310314 -3.48245 -0.184737 -0.0892921 0.750925 
308 0.596994 0.75207 0.0302379 0.396683 -3.49246 0.395411 -0.628607 0.0933416 
347 0.64725 0.799963 0.0160796 0.565054 -3.47292 -0.190541 0.351014 0.9442 
312 0.696133 0.749324 0.0279161 0.240827 -3.48493 0.0529552 0.718831 0.650357 
351 0.743934 0.801485 0.0171387 0.446463 -3.47808 0.579571 -0.103243 0.497876 
355 0.845493 0.798198 0.0202042 0.232728 -3.49355 0.0774865 0.475576 -0.166238 
359 0.948618 0.797114 0.0232386 0.329785 -3.49827 0.0843327 -0.287985 -0.412666 
363 0.0466371 0.897 0.00605677 4.86214 -3.46293 0.0316833 0.322776 -0.186584 
324 -0.00299722 0.84623 0.013886 0.478619 -3.4825 0.0478934 1.04789 -0.135312 
328 0.101837 0.849261 0.011564 5.45439 -3.48738 -0.495416 -0.0594188 0.55912 
367 0.151149 0.900195 0.00385814 4.80974 -3.44767 0.111122 -0.821096 -0.0932452 
332 0.200893 0.850436 0.0123202 0.289881 -3.49542 -0.119966 -0.353755 0.228592 
369 0.202784 0.901617 0.95174 5.06489 -3.46841 -0.645888 -0.7437 0.460714 
371 0.255425 0.899046 2.8181e-05 5.22997 -3.45765 0.0434071 0.757192 1.05067 
330 0.250136 0.852299 0.963594 0.457485 -3.45399 0.246024 -0.386301 -0.247 
336 0.303433 0.848907 0.013336 0.371326 -3.48311 0.0740805 0.230296 -0.379363 
373 0.304426 0.902218 0.95199 3.98803 -3.48502 -0.673709 -0.464996 -0.545768 
334 0.35322 0.851319 0.9579 0.998668 -3.4593 -0.153552 0.42146 0.87342 
340 0.397588 0.848059 0.014767 1.03123 -3.42822 0.211771 0.804135 -1.01044 
375 0.349102 0.900043 0.00363383 4.76254 -3.47212 -0.358828 -0.221154 -0.580434 
377 0.395403 0.90214 0.952133 4.81714 -3.46791 0.844974 0.410842 -0.321948 
379 0.451265 0.904201 -0.0011171 5.44137 -3.45245 -0.917747 -1.17509 0.19155 
344 0.496689 0.85315 0.0121085 0.282985 -3.50179 0.230009 -0.130577 -0.205413 
383 0.550826 0.904917 0.00312505 4.98001 -3.4416 -1.10532 -0.686776 -0.66438 
348 0.594686 0.853532 0.011091 0.577259 -3.48475 0.44634 -0.563706 -0.404856 
387 0.649814 0.899277 0.00129244 4.4337 -3.4812 -0.559414 0.633788 -0.559732 
352 0.697504 0.851579 0.00993076 0.140361 -3.4704 0.150458 -0.277173 -0.736216 
391 0.745824 0.903408 0.000905868 5.21873 -3.46064 0.467141 -0.603315 -0.566911 
356 0.800931 0.852038 0.00654942 4.9825 -3.47552 -0.461563 -0.356566 0.6799 
395 0.852477 0.900289 0.00255404 4.0926 -3.47221 -0.219013 -0.041001 0.227464 
360 0.901374 0.849369 0.0144533 0.512011 -3.48362 -0.207914 -0.286332 -0.659392 
399 0.949861 0.90063 0.00169714 5.19623 -3.4909 -0.0852531 -0.378554 0.185207 
3 0.0493334 0.0012452 0.0233748 5.15208 -3.507 -0.111051 -0.00559018 -0.449097 
368 0.0966777 0.951342 0.0111454 5.31585 -3.46583 0.265191 -0.627564 0.916766 
366 0.150426 0.947372 0.966417 0.768373 -3.48683 -0.164546 1.14405 -1.0837 
11 0.252562 0.000130776 0.0214042 0.271138 -3.4915 -0.361135 -0.0604965 0.235326 
372 0.202203 0.948662 0.0139302 5.46916 -3.50519 0.212296 0.112552 -0.228612 
370 0.251879 0.950291 0.961453 0.218619 -3.50727 -0.0471913 0.496214 0.0870618 
376 0.303005 0.954076 0.0134933 0.756882 -3.45575 -0.325607 -1.26475 0.090766 
15 0.355653 0.0024294 0.0205957 0.879136 -3.5021 -0.911183 -0.0515906 0.282972 
13 0.298724 -4.91993e-06 0.971954 0.26365 -3.48664 0.32056 0.419059 -0.267468 
374 0.347886 0.952332 0.96249 0.357979 -3.48104 0.418914 -0.429421 -0.114721 
17 0.398951 0.99969 0.970135 0.217305 -3.46181 -0.288161 0.706183 -0.417787 
19 0.445885 0.000842442 0.0178573 0.490552 -3.49524 0.632036 -0.0258957 0.28724 
380 0.39911 0.951548 0.00893834 0.249394 -3.48588 0.185028 -0.466033 0.362365 
384 0.498959 0.952458 0.00840906 0.154792 -3.49765 0.282472 -0.353246 0.554453 
23 0.547466 0.00165115 0.0226396 0.463799 -3.47482 -0.146423 -0.116808 -1.02047 
388 0.600341 0.950569 0.00742207 0.460214 -3.46201 0.664468 0.213646 1.0566 
27 0.650287 1.00085 0.0206347 0.337414 -3.49898 -0.360818 0.324012 -0.002957 
386 0.647363 0.949869 0.957047 0.275016 -3.50097 0.102839 -0.0887121 0.227643 
31 0.746941 -0.0035047 0.0172916 0.909098 -3.47629 0.376102 0.81326 0.603996 
392 0.694116 0.950394 0.00787619 0.707013 -3.45509 -0.247543 -0.126907 0.525018 
396 0.798185 0.949138 0.0108438 0.202504 -3.50576 0.15977 -0.05959 0.260939 
35 0.846195 1.00081 0.0225714 0.328052 -3.50148 0.633366 -0.0237638 -0.232584 
39 0.948883 1.00107 0.0209285 0.0569178 -3.5083 -0.158993 0.00823995 0.150999 
400 0.900051 0.94981 0.0119943 0.131852 -3.50708 -0.134509 0.271393 -0.026349 
364 0.998256 0.949986 0.0118856 0.106533 -3.49425 -0.224121 -0.331825 0.0119765 
402 0.0502826 0.050502 0.0789938 5.34062 -3.51026 -0.452142 -0.134901 -0.269558 
408 0.0983272 0.0487087 0.129121 0.17783 -3.51309 0.348183 0.885913 -0.259882 
406 0.148853 0.0500091 0.0798931 0.201106 -3.49405 0.529883 0.21075 -0.382519 
412 0.198077 0.0484816 0.128546 5.27653 -3.50235 0.477527 0.408895 0.348992 
410 0.250305 0.05298 0.0818273 0.546343 -3.49914 -0.106922 -0.7252 0.0955973 
416 0.304639 0.0494466 0.129601 4.72922 -3.47859 -0.425156 -0.375904 0.358646 
414 0.355381 0.0501036 0.0798535 5.23861 -3.48595 -0.703432 -0.585377 -0.242592 
420 0.403851 0.0499564 0.132636 0.316908 -3.46616 -0.331192 0.85991 -0.319295 
418 0.45145 0.0515425 0.0810769 0.373441 -3.48512 -0.668485 0.0660094 0.249003 
424 0.501593 0.0493618 0.130963 0.176106 -3.50175 -0.493166 0.204135 0.284457 
422 0.547378 0.0478788 0.081034 5.24993 -3.48513 0.386336 0.517032 -0.272985 
426 0.650925 0.0516048 0.0797384 0.309631 -3.45957 -0.0720452 -0.660809 0.00933645 
428 0.598862 0.0490673 0.133409 0.287227 -3.49181 0.22849 0.585953 -0.758906 
432 0.696522 0.0499983 0.133923 4.5164 -3.49509 0.57705 0.283243 -0.437667 
430 0.748983 0.0492445 0.0815358 0.245052 -3.47759 -0.192543 0.838532 0.00747977 
436 0.799641 0.0498006 0.131118 0.170615 -3.48795 -0.653017 0.433054 -0.505072 
434 0.845205 0.0487609 0.0798209 0.315947 -3.48544 0.115841 0.595403 -0.168679 
440 0.898756 0.0477133 0.130481 0.229071 -3.50288 -0.0310952 0.0983539 -0.441877 
404 -0.00197674 0.0479306 0.13055 0.213067 -3.49796 -0.252641 0.223911 -0.602467 
438 0.945247 0.0485499 0.0800036 5.60933 -3.46945 1.22863 1.154 0.581156 
442 0.0522744 0.15243 0.0977341 4.77321 -3.45826 -0.436867 -1.55689 0.355978 
443 0.0506582 0.0990302 0.140092 0.341878 -3.47197 -0.19783 0.32588 -1.20823 
445 0.0990966 0.0994011 0.0850336 5.1542 -3.48154 -0.0808097 -0.054053 1.34143 
448 0.100741 0.148277 0.151173 5.28088 -3.48736 -0.0903689 0.837147 -0.974406 
446 0.146902 0.148615 0.0986993 0.354432 -3.49714 0.267839 0.174704 -0.0526996 
447 0.147763 0.098691 0.139261 0.184097 -3.49358 0.309995 -0.031855 -0.290212 
449 0.199849 0.103926 0.091893 5.28656 -3.48736 0.0110536 -1.0111 -0.366902 
452 0.201596 0.14797 0.149044 4.73634 -3.50516 -0.395345 0.05956 -0.155926 
451 0.249578 0.0995335 0.142018 0.31802 -3.48218 0.0789273 -0.385815 -0.569857 
450 0.25142 0.149275 0.0999002 5.60033 -3.4977 0.458605 -0.150232 -0.0887273 
453 0.30345 0.098818 0.0913623 0.507317 -3.50838 0.125873 0.225634 -0.448766 
456 0.303924 0.15071 0.149223 0.53457 -3.4945 -0.928521 -0.813585 0.682878 
454 0.350688 0.148434 0.0983282 0.416756 -3.46738 0.434734 0.965974 1.27068 
455 0.349454 0.100612 0.145085 1.1611 -3.47603 0.680383 -0.246001 -1.34017 
457 0.39488 0.101452 0.0878873 1.05519 -3.4404 0.671749 -0.950739 1.31515 
460 0.402751 0.148248 0.149393 0.392366 -3.49895 -0.51102 0.49788 0.333708 
458 0.448291 0.150221 0.09869 0.178497 -3.51221 0.246009 -0.356689 -0.00644795 
459 0.448734 0.10023 0.140756 0.300023 -3.48057 0.423209 0.0484908 -0.357453 
464 0.503586 0.152686 0.147387 0.842903 -3.46209 -0.647455 -0.614734 0.338771 
461 0.501402 0.0998931 0.0898492 0.251156 -3.50875 -0.378586 0.151039 0.112873 
462 0.54934 0.150304 0.097982 0.178767 -3.5033 0.0533042 -0.219958 0.327043 
463 0.547409 0.100639 0.140939 0.257263 -3.50459 0.371859 -0.0500493 -0.376817 
465 0.597047 0.0977493 0.0892556 0.389557 -3.50066 0.209525 0.159787 0.39756 
466 0.648166 0.149317 0.102624 0.566781 -3.47447 0.732466 -0.227323 -1.06227 
467 0.648642 0.100186 0.142206 0.248858 -3.49612 0.00797069 0.0436971 -0.487218 
468 0.599082 0.150323 0.148586 0.194637 -3.48618 0.031515 0.00920136 0.464617 
469 0.698834 0.101253 0.0906395 0.221944 -3.49733 -0.325471 0.0292424 -0.213133 
472 0.7014 0.150796 0.149403 0.179259 -3.50756 -0.141947 -0.399289 0.337316 
471 0.750402 0.0986551 0.138092 0.322255 -3.44699 -0.48206 -0.514108 0.0555343 
470 0.748541 0.148163 0.0987602 0.272402 -3.50176 0.25478 0.714729 0.110747 
473 0.800421 0.100417 0.0899412 0.216205 -3.51017 -0.417834 -0.571333 -0.296281 
476 0.799731 0.147278 0.148286 0.247594 -3.49569 0.129211 0.422124 -0.153634 
474 0.850457 0.148624 0.0986426 0.176497 -3.50224 -0.588645 0.243286 0.140509 
475 0.847501 0.0965687 0.13757 4.84701 -3.49552 0.677184 0.691996 0.612599 
477 0.8977 0.098973 0.0897474 0.125006 -3.49743 0.00747637 -0.40001 0.0815764 
444 -0.00119562 0.147357 0.148383 0.220642 -3.47636 -0.138611 0.218227 -0.0392064 
480 0.898854 0.149329 0.14839 0.120992 -3.49184 -0.117114 -0.136217 0.0442894 
441 -0.000805904 0.0989551 0.0855152 5.52351 -3.45442 -0.26826 -0.0385552 1.08515 
478 0.948377 0.146073 0.10096 0.65747 -3.5142 0.0880226 0.770709 -0.907431 
479 0.951085 0.0977063 0.14218 5.13919 -3.45601 -0.578887 -0.054741 -0.95977 
483 0.048283 0.197199 0.155236 5.04562 -3.50829 0.409617 0.243961 0.616835 
485 0.101045 0.198632 0.106097 0.544209 -3.48887 0.0263836 0.0279898 0.939913 
488 0.0970535 0.247165 0.167623 0.246256 -3.49376 0.502971 -0.948791 -0.0877732 
487 0.150348 0.198201 0.157106 0.173755 -3.51908 -0.245553 -0.00503911 0.0727401 
489 0.202218 0.1962 0.109043 0.435647 -3.50111 -0.624416 0.486139 -0.277466 
492 0.197357 0.248398 0.167236 0.211344 -3.48946 0.269933 0.316476 0.374705 
491 0.250055 0.199002 0.157296 0.0977993 -3.5108 0.0038753 0.0464875 0.33194 
493 0.301339 0.201581 0.110028 0.33349 -3.48369 0.0678155 -0.731142 -0.0390735 
495 0.349918 0.197692 0.159622 0.206246 -3.47822 0.155708 0.745599 -0.353379 
497 0.399106 0.20097 0.108738 0.176224 -3.48919 0.23484 -0.64132 0.433058 
500 0.396751 0.246673 0.171802 0.596758 -3.50363 0.220456 0.162225 -0.407524 
499 0.44988 0.199417 0.159457 0.12792 -3.51112 -0.46004 -0.46619 0.198608 
498 0.44917 0.250621 0.121015 0.306954 -3.49053 0.333385 -0.184981 -0.325709 
501 0.497758 0.198216 0.10991 0.512699 -3.46558 0.469162 0.837798 -0.240793 
503 0.553418 0.200437 0.159272 0.308776 -3.4983 -0.429088 0.0530291 0.0619713 
502 0.553765 0.250525 0.119122 0.510744 -3.48237 -0.498717 -0.266037 0.233035 
504 0.497811 0.247649 0.171245 0.473166 -3.47576 0.626468 0.904445 -0.3719 
505 0.598054 0.20018 0.108637 0.323244 -3.48234 0.632726 0.00999124 -0.0695176 
507 0.653681 0.200607 0.160882 0.343854 -3.50258 -0.440585 -0.384758 -0.0604621 
506 0.644896 0.249541 0.121611 1.02781 -3.49392 0.697242 -0.149002 -0.369562 
508 0.600392 0.247787 0.172049 0.501643 -3.50188 -0.122385 0.735063 0.0182749 
509 0.701067 0.202399 0.110339 0.507123 -3.49236 -0.155862 -0.415671 -0.205839 
511 0.74997 0.19966 0.160349 0.13616 -3.49769 -0.123524 0.182836 -0.48968 
512 0.70197 0.250581 0.168763 0.271577 -3.51217 -0.0103512 0.193746 -0.139831 
510 0.752313 0.250501 0.118899 5.3928 -3.50402 -0.805467 -0.22299 0.191561 
516 0.796647 0.247662 0.167711 5.19975 -3.47186 1.06025 0.614374 0.772717 
513 0.796509 0.198802 0.110879 0.384119 -3.50092 0.368189 0.10527 -0.84159 
515 0.847741 0.198344 0.158967 0.146989 -3.50223 0.20147 -0.0719476 0.105809 
517 0.898496 0.198079 0.10908 0.157231 -3.50183 0.227289 0.347266 -0.720815 
520 0.900865 0.248153 0.167126 0.316567 -3.46572 -0.267742 0.447209 0.733872 
514 0.849845 0.245565 0.119871 0.577149 -3.49545 -0.361079 0.793975 -0.100469 