LAMMPS (16 Mar 2018)
dimension 3
boundary p p p
atom_style full
units metal
kspace_style pppm/cg 1.0e-4
kspace_modify pressure/scalar no
bond_style harmonic
angle_style harmonic

neighbor 2.0 bin
neigh_modify delay 0 every 1 check yes

region box1 block -40.0 40.0 -40.0 40.0 -40.0 40.0
create_box 4 box1 bond/types 2 extra/bond/per/atom 2 angle/types 1 extra/angle/per/atom 1 extra/special/per/atom 10
Created orthogonal box = (-40 -40 -40) to (40 40 40)
  1 by 1 by 1 MPI processor grid

molecule cat_ion cation_mol.txt
Read molecule cat_ion:
  3 atoms with max type 4
  2 bonds with max type 2
  1 angles with max type 1
  0 dihedrals with max type 0
  0 impropers with max type 0

mass    1  86.8 #anion
mass    2  67.0 #ring
mass    3  15.0 #methyl
mass    4  29.0 #ethyl

create_atoms 1 random 40 1340 box1                     #at least 40
Created 40 atoms
  Time spent = 0.00427294 secs
create_atoms 0 random 40 2345 box1 mol cat_ion 1234    #at least 40
Created 120 atoms
  Time spent = 0.000179052 secs
#create_atoms 1 single  10.0 0.0 0.0
#create_atoms 0 single 0.0 0.0 0.0 mol cat_ion 1234
group anion type 1
40 atoms in group anion
group ring type 2
40 atoms in group ring
group methyl type 3
40 atoms in group methyl
group ethyl type 4
40 atoms in group ethyl

bond_coeff 1 87.729 2.689748837
bond_coeff 2 87.729 3.04931147
angle_coeff 1 87.729 144.1868904
pair_style lj/cut/coul/long 30.0
#pair_style nm/cut/coul/long 30.0
pair_modify mix geometric
################### properties to change
pair_coeff 1 1   1.1436950146628  1.3636363636364
pair_coeff 2 2   1.1436950146628  7.3998044965787
pair_coeff 3 3   3.5972629521017  0.57429130009775
pair_coeff 4 4   1.0654936461388  3.4345063538612

#create_bonds single/bond 1 2 3
#create_bonds single/bond 2 2 4
#create_bonds single/angle 1 3 2 4

set type 1 charge -1.0
  40 settings made for charge
#set type 2 charge  0.408675
#set type 3 charge  0.317505
#set type 4 charge  0.273820

########################################

write_data solid.data pair ij
PPPM initialization ...
  using 12-bit tables for long-range coulomb (/home/conda/feedstock_root/build_artifacts/lammps_1526417570236/work/src/kspace.cpp:321)
  G vector (1/distance) = 0.0715088
  grid = 8 8 8
  stencil order = 5
  estimated absolute RMS force accuracy = 0.000442562
  estimated relative force accuracy = 3.07342e-05
  using double precision FFTs
  3d grid and FFT values/proc = 2197 512
Neighbor list info ...
  update every 1 steps, delay 0 steps, check yes
  max neighbors/atom: 2000, page size: 100000
  master list distance cutoff = 32
  ghost atom cutoff = 32
  binsize = 16, bins = 5 5 5
  1 neighbor lists, perpetual/occasional/extra = 1 0 0
  (1) pair lj/cut/coul/long, perpetual
      attributes: half, newton on
      pair build: half/bin/newton
      stencil: half/bin/3d/newton
      bin: standard

thermo_style	custom step temp pe ke ebond press density

##################################
variable    T equal 298.0
variable    V equal vol
variable    dt equal 0.0001
variable    p equal 400     # correlation length
variable    s equal 5       # sample interval
variable    d equal $p*$s   # dump interval
variable    d equal 400*$s   
variable    d equal 400*5   

# convert from LAMMPS real units to SI

variable    kB equal 1.3806504e-23    # [J/K/** Boltzmann
variable    bar2Pa equal 100000.0
variable    A2m equal 1.0e-10
variable    ps2s equal 1.0e-12
variable    convert equal ${bar2Pa}*${bar2Pa}*${ps2s}*${A2m}*${A2m}*${A2m}
variable    convert equal 100000*${bar2Pa}*${ps2s}*${A2m}*${A2m}*${A2m}
variable    convert equal 100000*100000*${ps2s}*${A2m}*${A2m}*${A2m}
variable    convert equal 100000*100000*1e-12*${A2m}*${A2m}*${A2m}
variable    convert equal 100000*100000*1e-12*1e-10*${A2m}*${A2m}
variable    convert equal 100000*100000*1e-12*1e-10*1e-10*${A2m}
variable    convert equal 100000*100000*1e-12*1e-10*1e-10*1e-10
timestep     ${dt}
timestep     0.0001
variable    tdamp equal ${dt}*10.
variable    tdamp equal 0.0001*10.
variable    pdamp equal ${dt}*100.
variable    pdamp equal 0.0001*100.
thermo       $d
thermo       2000

variable  ILdens equal density
variable  ILstep equal step
variable  ILtime equal time*1.0e-12 #from ps to s
variable  ILtemp equal temp
variable  ILpe equal pe
variable  ILke equal ke
variable  ILpr equal press

##################################
fix             333 all print 2000 "${ILstep} ${ILtime} ${ILdens} ${ILtemp} ${ILpr} ${ILpe} ${ILke}" file density.dat screen no
dump 1 all dcd $d minim.dcd
dump 1 all dcd 2000 minim.dcd
dump 2 all custom $d dump.atom id mass type x y z
dump 2 all custom 2000 dump.atom id mass type x y z

##################################
##################################
#  Minimize initial
##################################

velocity     all create $T 102486 mom yes rot yes dist gaussian
velocity     all create 298 102486 mom yes rot yes dist gaussian
minimize 1.e-4 1.0e-6 1000 10000
PPPM initialization ...
  using 12-bit tables for long-range coulomb (/home/conda/feedstock_root/build_artifacts/lammps_1526417570236/work/src/kspace.cpp:321)
  G vector (1/distance) = 0.0715088
  grid = 8 8 8
  stencil order = 5
  estimated absolute RMS force accuracy = 0.000442562
  estimated relative force accuracy = 3.07342e-05
  using double precision FFTs
  3d grid and FFT values/proc = 2197 512
  PPPM/cg optimization cutoff: 1e-05
  Total charged atoms: 100.0%
  Min/max charged atoms/proc: 100.0% 100.0%
Per MPI rank memory allocation (min/avg/max) = 10.13 | 10.13 | 10.13 Mbytes
Step Temp PotEng KinEng E_bond Press Density 
       0          298 1.9566855e+11    6.1246042    0.2462049 2.4491899e+12  0.025660516 
     132          298   -90.182286    6.1246042  0.092290692   -71.185126  0.025660516 
Loop time of 0.168336 on 1 procs for 132 steps with 160 atoms

99.4% CPU use with 1 MPI tasks x no OpenMP threads

Minimization stats:
  Stopping criterion = energy tolerance
  Energy initial, next-to-last, final = 
          195668549698     -90.1764879851     -90.1822862281
  Force two-norm initial, final = 3.45083e+12 12.7731
  Force max component initial, final = 1.52393e+12 7.99571
  Final line search alpha, max atom move = 0.0119064 0.0951999
  Iterations, force evaluations = 132 191

MPI task timing breakdown:
Section |  min time  |  avg time  |  max time  |%varavg| %total
---------------------------------------------------------------
Pair    | 0.041087   | 0.041087   | 0.041087   |   0.0 | 24.41
Bond    | 0.0017629  | 0.0017629  | 0.0017629  |   0.0 |  1.05
Kspace  | 0.11669    | 0.11669    | 0.11669    |   0.0 | 69.32
Neigh   | 0.002851   | 0.002851   | 0.002851   |   0.0 |  1.69
Comm    | 0.0030873  | 0.0030873  | 0.0030873  |   0.0 |  1.83
Output  | 0          | 0          | 0          |   0.0 |  0.00
Modify  | 0          | 0          | 0          |   0.0 |  0.00
Other   |            | 0.002857   |            |       |  1.70

Nlocal:    160 ave 160 max 160 min
Histogram: 1 0 0 0 0 0 0 0 0 0
Nghost:    746 ave 746 max 746 min
Histogram: 1 0 0 0 0 0 0 0 0 0
Neighs:    3433 ave 3433 max 3433 min
Histogram: 1 0 0 0 0 0 0 0 0 0

Total # of neighbors = 3433
Ave neighs/atom = 21.4563
Ave special neighs/atom = 1.5
Neighbor list builds = 9
Dangerous builds = 0

reset_timestep 0
fix 1 all npt temp $T $T ${tdamp} iso 1.0 1.0 ${pdamp}
fix 1 all npt temp 298 $T ${tdamp} iso 1.0 1.0 ${pdamp}
fix 1 all npt temp 298 298 ${tdamp} iso 1.0 1.0 ${pdamp}
fix 1 all npt temp 298 298 0.001 iso 1.0 1.0 ${pdamp}
fix 1 all npt temp 298 298 0.001 iso 1.0 1.0 0.01
run             800000
PPPM initialization ...
  using 12-bit tables for long-range coulomb (/home/conda/feedstock_root/build_artifacts/lammps_1526417570236/work/src/kspace.cpp:321)
  G vector (1/distance) = 0.0715088
  grid = 8 8 8
  stencil order = 5
  estimated absolute RMS force accuracy = 0.000442562
  estimated relative force accuracy = 3.07342e-05
  using double precision FFTs
  3d grid and FFT values/proc = 2197 512
Per MPI rank memory allocation (min/avg/max) = 9.004 | 9.004 | 9.004 Mbytes
Step Temp PotEng KinEng E_bond Press Density 
       0          298   -90.182286    6.1246042  0.092290692   -71.185126  0.025660516 
    2000    301.56921   -123.52326    6.1979599  0.062093239    66.816122  0.050108963 
    4000    306.73037     -201.035    6.3040338   0.20623848    -73.05905   0.10288924 
    6000    309.35035   -298.74177    6.3578806  0.061921249     397.6589   0.18140622 
    8000    312.07828   -409.35459    6.4139461  0.065623053   -415.55057   0.29522044 
   10000     310.1413   -540.29073    6.3741365   0.16129522     1753.427   0.41917098 
   12000    307.57863   -624.81818    6.3214677  0.081907541    1794.1916   0.50387652 
   14000    285.24317   -705.06726    5.8624212   0.39346238    1358.9166    0.5698932 
   16000    327.10664   -771.20451    6.7228144    0.1164193    614.85693    0.6386321 
   18000    289.56618   -839.43664    5.9512692   0.34919434   -1354.9639   0.69343846 
   20000    291.46603   -889.41427    5.9903156   0.23980526    578.88673    0.7321747 
   22000    289.32222   -925.57616    5.9462554   0.38342569   -2085.6862   0.77416666 
   24000    266.03261     -970.696    5.4675987   0.52751382    1863.5476    0.8145603 
   26000    312.51042   -1001.4595    6.4228275   0.61497791   -2605.4999   0.83961631 
   28000    281.12146   -1011.2511    5.7777103   0.31725029   -77.740038   0.85613317 
   30000     299.2403   -1022.3537    6.1500953    1.1974487   -776.44275   0.86055929 
   32000    300.23165   -1031.2439      6.17047    1.0066574   -6088.3207   0.86916989 
   34000    317.72641   -1040.4325    6.5300286   0.61674098    975.05639   0.88320122 
   36000    307.18529   -1047.8148    6.3133836   0.77406535   -4421.5065    0.8816934 
   38000    307.57378   -1051.8005     6.321368   0.83976185   -5786.1273    0.8815413 
   40000    315.07898   -1054.7735    6.4756176   0.76706369   -1144.8659   0.88540845 
   42000    270.35866   -1061.1139    5.5565093   0.78949138   -1467.1142   0.88211588 
   44000    301.51981   -1061.2781    6.1969446   0.85665282    1274.5905   0.88537354 
   46000    320.20348   -1060.4369    6.5809382    1.3211893    6995.7826   0.88420241 
   48000    303.67055   -1061.7364    6.2411475    1.1514524   -931.49709   0.88570934 
   50000    287.14071   -1062.0957    5.9014201   0.90768449    954.87147   0.88489616 
   52000    289.84631   -1062.4801    5.9570265   0.90694575    2983.9879   0.88205003 
   54000    345.27219   -1064.3178    7.0961594   0.87713208    -2309.629   0.87991473 
   56000    274.86394   -1063.1837    5.6491035    1.0336877   -5060.1794   0.88134883 
   58000    269.58995   -1065.1426    5.5407105   0.81458892     1418.967   0.88695212 
   60000    288.01683   -1064.5627    5.9194265   0.59187815   -985.50878   0.87859045 
   62000    301.01109   -1066.1498    6.1864893   0.82961524    495.68522   0.88280871 
   64000    294.28153   -1065.4012    6.0481809    0.7197107    4896.2385   0.88342394 
   66000    324.76123   -1065.5386    6.6746106   0.98953957    773.13568   0.88517293 
   68000     309.1959   -1065.3741    6.3547063   0.75405152     181.3847   0.88130055 
   70000     308.3425   -1065.9795    6.3371671     1.060811     -2860.44   0.88489804 
   72000    290.91276   -1069.3919    5.9789448   0.68633913    1173.1611   0.88563251 
   74000    298.40272   -1068.8612    6.1328811   0.63060072    1896.6941   0.88635828 
   76000    309.99891   -1069.1911    6.3712101   0.74014162   -4864.8768   0.88278784 
   78000    307.69967   -1069.9372    6.3239553   0.80556503    932.54535    0.8884829 
   80000    274.96974    -1070.357    5.6512779   0.48620342   -1388.9622   0.88479165 
   82000    303.40256    -1072.098    6.2356396   0.95598531    -622.2738   0.88332195 
   84000    300.75742   -1073.0519    6.1812758   0.94162147   -491.42773   0.88647098 
   86000    295.43609    -1071.802    6.0719098    1.3681853    2562.3737   0.88901987 
   88000    262.57232   -1073.2306    5.3964816    1.1355622   -4387.7902   0.88586858 
   90000    300.30014   -1072.4363    6.1718775    1.0424157    2118.8071   0.88418353 
   92000    312.35245    -1072.275     6.419581   0.94473203    396.53846   0.88493606 
   94000    352.81193   -1073.0512    7.2511189    0.9716049   -2630.9511   0.88619019 
   96000    343.30693   -1073.2066    7.0557688    0.9908037   -7436.4134   0.88002371 
   98000    327.51407   -1073.1666    6.7311882   0.81870283   -1853.1471     0.883301 
  100000    327.23832   -1073.3841    6.7255207   0.90168367   -2163.3153    0.8864628 
  102000    312.15238   -1073.3445     6.415469    0.6909204    6203.4535   0.89002941 
  104000      274.939   -1072.4805    5.6506461   0.94571308    1694.3632    0.8864723 
  106000    314.22474   -1073.2573    6.4580609   0.78738191   -675.45726   0.88588543 
  108000    305.31875   -1073.0708    6.2750218    1.2524679   -3977.6453   0.88389084 
  110000    321.15345   -1073.1687    6.6004623    1.1929817    840.17427   0.88640965 
  112000     304.1632   -1072.8205    6.2512726    1.0182005    1845.7837   0.88850861 
  114000     322.1683   -1073.6836    6.6213198    0.8545733   -1515.7035   0.88342006 
  116000    276.19069   -1073.1104    5.6763714    1.2587328    703.13255   0.88289114 
  118000     247.5796   -1072.5806    5.0883458   0.92663521    3208.2541    0.8860858 
  120000    303.76213   -1072.8855    6.2430296   0.95924548    1589.1567   0.88880486 
  122000    273.17548   -1072.6312    5.6144015    1.1911729   -4312.9608   0.88689798 
  124000    299.13469   -1072.9076    6.1479247    1.1117498   -952.35768   0.88508649 
  126000    286.53288   -1073.6934    5.8889278   0.96301965    3571.1876   0.88801867 
  128000    292.74646   -1072.7071    6.0166316    1.0249786    4052.3787   0.88771836 
  130000    304.27658    -1072.806    6.2536027   0.97435532   -761.89788   0.88816256 
  132000    328.45329   -1072.9514    6.7504912    1.2221787    -1820.229    0.8852913 
  134000    289.52384   -1073.0926    5.9503991    1.2691155   -2223.6107   0.88629706 
  136000     285.6201   -1073.2087    5.8701679    1.1175399   -10.419751   0.88394821 
  138000    280.97889   -1072.6848    5.7747802       1.1598    2548.1114   0.88599894 
  140000    330.17518   -1073.0315    6.7858803   0.93515415    7677.9695   0.88870944 
  142000    278.34307   -1072.5404    5.7206079    1.0050368   -916.84436   0.88506546 
  144000    305.71216   -1073.0255    6.2831072    1.1021338    -2078.042    0.8828043 
  146000    331.55816   -1073.6074    6.8143036   0.77408825     1323.024   0.88560587 
  148000    273.30449   -1073.4375     5.617053    1.2732041    530.43592   0.88696466 
  150000    306.72649   -1072.9729    6.3039542     1.076654    4176.4222   0.89048525 
  152000    271.31511   -1073.1608    5.5761667   0.92383305    2004.7635   0.88361948 
  154000    299.84057   -1074.1599    6.1624322    1.1104122    2137.6939   0.88408528 
  156000    291.23686   -1072.6715    5.9856056   0.98774111    8161.1641   0.88698969 
  158000     283.9537   -1074.1392    5.8359195    1.2127651   -2253.3831   0.88735712 
  160000    355.33639   -1073.3105    7.3030024    1.4109602   -5891.9908   0.88400083 
  162000     277.5943    -1073.145    5.7052189    1.0099303   -1027.1761   0.88260487 
  164000    287.51063   -1073.6029    5.9090229    1.1315351   -2165.3843   0.88567779 
  166000    289.63076   -1074.2887    5.9525966    1.1817919   -2861.8963   0.88196048 
  168000    296.65808   -1074.1352    6.0970245    1.1028409   -2276.0568   0.88691474 
  170000     336.0683   -1073.1258    6.9069977   0.88595653    3280.9356   0.88551496 
  172000     327.8247    -1073.378    6.7375723   0.95687708   -150.88994    0.8828445 
  174000    278.81143   -1073.9359    5.7302337    1.2641414     213.7122   0.88569129 
  176000    321.09426   -1073.2454    6.5992457    1.2368243   -1157.7858   0.88523815 
  178000    301.79997   -1073.9061    6.2027026    1.2609835    1431.4763    0.8873828 
  180000     244.6488   -1073.0934    5.0281109    1.8290988   -2471.2931   0.88616779 
  182000    304.08273   -1073.3169    6.2496187    1.5354863    367.91297   0.88394205 
  184000    311.48484   -1073.2168    6.4017494    1.5558599    439.22819   0.88589268 
  186000    265.76607   -1073.2222    5.4621207    1.3300271    2124.7101   0.88318337 
  188000    327.12617   -1073.7087    6.7232159    1.3465064    3387.9482   0.88757709 
  190000    290.10874   -1073.7095    5.9624201    1.2533313    344.18443   0.88441599 
  192000    331.33823   -1073.4029    6.8097835    1.6283711   -3787.3779   0.88478801 
  194000    293.42506   -1072.9612    6.0305783    1.1685059    2486.0407   0.88749946 
  196000    277.61671    -1073.765    5.7056794    1.3130905   -520.96563   0.88610165 
  198000    317.33703    -1072.928    6.5220259    1.4670069     1260.984   0.88435506 
  200000    308.53764   -1073.7506    6.3411776    1.2122249    2004.1294   0.88642683 
  202000    303.82315   -1073.0521    6.2442837    1.5782319   -3420.1833   0.88443447 
  204000    321.10493    -1073.947    6.5994652    1.1935173   -1667.3696   0.88539969 
  206000    307.64523   -1073.3401    6.3228364    1.2232968    251.77453   0.88677437 
  208000    309.66875   -1073.4995    6.3644246    1.2480008    7549.0566   0.89333812 
  210000    299.00943   -1073.9775    6.1453505    1.5032925    -1762.413   0.88729293 
  212000    299.24472   -1073.7946    6.1501862    1.5034196   -6049.9867   0.88284302 
  214000    301.13428   -1072.7966    6.1890211    1.0898233   -1447.2768   0.88161578 
  216000    283.80872    -1073.544    5.8329398    1.4483828   -2654.3158   0.88413816 
  218000    298.99396   -1073.8138    6.1450324     1.257888   -2156.5527   0.88450951 
  220000    273.58641   -1073.8778    5.6228472     1.349589    2168.9239   0.88601959 
  222000    277.24912   -1074.0026    5.6981246    1.3703895    2966.7692   0.89035183 
  224000    290.84853   -1074.1548    5.9776245    1.4396722   -2378.6394   0.88812674 
  226000    309.37252    -1073.448    6.3583363    1.3591765   -2056.7536   0.88234552 
  228000     321.6445   -1074.0156    6.6105545    1.3877396   -2233.1301   0.88480605 
  230000    295.02218     -1074.09     6.063403    1.0974827    288.06354    0.8872165 
  232000     307.3844   -1073.5931    6.3174758    1.3215328     2185.925   0.88732746 
  234000    309.69145   -1073.3605    6.3648912    1.3886123   -2133.6528   0.88728642 
  236000    293.61105   -1072.9642     6.034401    1.2285574    -3341.289   0.88538595 
  238000    305.81559   -1073.8518     6.285233    1.2622848   -3826.4967   0.88608182 
  240000    304.72369    -1073.905    6.2627918    1.2478107   -1275.9948   0.88653499 
  242000    267.95788   -1073.4792    5.5071677    1.0972253    702.82866   0.88683969 
  244000    271.96699   -1074.0568    5.5895644    1.0632043    4778.1277   0.89065146 
  246000    275.73098   -1073.5585    5.6669233    1.1405877   -1472.5273   0.88586052 
  248000    275.57928   -1073.2409    5.6638055    1.1729355    -594.3438   0.88104393 
  250000    268.71086   -1073.1961    5.5226432    1.4681607   -2935.6826   0.88593901 
  252000    289.54701   -1073.3485    5.9508753    1.2300427   -836.79033   0.88565242 
  254000    321.61318   -1072.8561    6.6099109    1.8682674   -1027.7495   0.89178173 
  256000    271.37416    -1073.651    5.5773803    1.2677128    934.28769   0.88373517 
  258000    306.74562    -1074.231    6.3043473    1.4177906    4990.2826   0.88892488 
  260000    299.46973   -1072.8968    6.1548107    1.3751599    2678.3046   0.88998375 
  262000    294.56736   -1074.1194    6.0540553    1.5673211    -4836.921   0.88833326 
  264000    330.83117   -1073.4607    6.7993623    1.6997883   -720.51163   0.88731171 
  266000    310.04518    -1074.149     6.372161     1.167016    1912.4181    0.8843439 
  268000    283.35102   -1074.0933    5.8235329   0.96598611    1033.0697   0.88638371 
  270000    340.95357   -1073.5487    7.0074016    1.2927415    5715.9958   0.88925783 
  272000    290.20439   -1073.5586     5.964386    1.0843303    4757.5345   0.88801359 
  274000     297.9614   -1073.3956    6.1238109     1.266871    193.16447   0.88750103 
  276000    292.87476   -1073.2951    6.0192684    1.5568695   -5382.7017   0.88231163 
  278000    291.82561   -1073.2251     5.997706    1.5259617   -1510.1335   0.88459617 
  280000    289.51023   -1073.3814    5.9501195    1.4107592    2122.6017   0.88641191 
  282000    290.44487   -1073.3441    5.9693285    1.2590278    1075.7646   0.88515266 
  284000    306.07116   -1073.3701    6.2904856    1.0718397   -42.535518   0.88778761 
  286000    277.10331   -1073.5968    5.6951279    1.2066313    7816.0297   0.89068586 
  288000    309.80305   -1074.3291    6.3671848    1.1609641   -1419.1792   0.88702692 
  290000    282.51864   -1073.8987    5.8064256    1.2267518   -2926.6568   0.88751886 
  292000    306.82513     -1073.57    6.3059814    1.5020449   -491.07091   0.88686767 
  294000    309.77754   -1073.0356    6.3666605    1.1792399    3104.2569   0.88728008 
  296000    279.53065   -1073.3584    5.7450155     1.484798    630.86316   0.88633924 
  298000    309.11713   -1073.3479    6.3530875    1.1107204    2937.8583   0.88492644 
  300000    313.08479    -1073.724    6.4346323    1.4423538     331.9065   0.88774974 
  302000    292.43138   -1072.9749    6.0101558    1.4630103    -5203.186   0.88259012 
  304000    301.63342   -1074.0399    6.1992796    1.1102889   -402.08816   0.88592964 
  306000    294.61087   -1073.8093    6.0549496    1.2118728    654.93198   0.88462128 
  308000    241.57704   -1073.2076    4.9649791    1.2279779    2575.9348   0.88674885 
  310000    300.57497   -1073.3671     6.177526    1.3414719    77.103787   0.88884011 
  312000    260.28044   -1073.6639    5.3493782    1.6703031   -777.55537   0.88637297 
  314000    331.46661   -1073.4806    6.8124222    1.2993859   -3042.9708   0.89037817 
  316000    326.61268   -1073.4743    6.7126624    1.2716841   -3693.3156   0.88377479 
  318000    307.14908   -1073.9334    6.3126394    1.3759701   -375.06024   0.88880254 
  320000    279.79595   -1073.1609    5.7504679    1.6357359   -5625.3104   0.88753202 
  322000    279.59061   -1073.8045    5.7462478    1.3170242    1147.4459    0.8895042 
  324000      295.939   -1073.4515    6.0822458    1.0920077    3138.1375   0.88588811 
  326000     303.8409   -1073.0963    6.2446484    1.5159247    2387.4979   0.88927532 
  328000    302.61564   -1072.9943    6.2194664    1.4341443   -4716.5347   0.88684298 
  330000    310.88386   -1073.7785    6.3893979    1.3145169    1758.5512   0.88548928 
  332000    281.21809   -1074.1729    5.7796963    1.1053871    6652.9259   0.88908674 
  334000    281.04868   -1073.9212    5.7762145    1.3168266   -2838.8586   0.88725005 
  336000    291.26462   -1073.3998    5.9861761    1.1187224    1270.7299   0.88732792 
  338000    317.52001   -1073.5989    6.5257865    1.3929856    1797.9377   0.88649584 
  340000    307.55657   -1073.4901    6.3210142    1.5404178    432.15911   0.88399619 
  342000     296.2634   -1073.5806     6.088913    1.2085923   -316.38794   0.88349023 
  344000    289.10237   -1073.6992     5.941737    1.1712992    3394.0149   0.88566897 
  346000    329.17721   -1073.7602    6.7653696    1.3340562   -1601.9553   0.88492573 
  348000    277.53621   -1074.2351     5.704025    1.2188816   -2743.2603   0.88399932 
  350000    300.59937   -1073.6149    6.1780275    1.3504141    579.96465   0.88652885 
  352000     269.1359   -1073.0485    5.5313788     1.697676    161.74308   0.88794061 
  354000    265.76092   -1074.2232    5.4620149    1.4363034   -1677.5122   0.88730632 
  356000    302.06824   -1073.3378    6.2082161     1.520187    535.93151   0.88432739 
  358000    294.14795   -1073.6258    6.0454355    1.2764656    4630.5674   0.88520759 
  360000    330.26152   -1073.4839    6.7876546    2.1371039   -8088.4714   0.88135513 
  362000    300.46528   -1073.3872    6.1752714    1.2435419    1664.4054   0.88781049 
  364000    324.02516   -1073.9035    6.6594827    1.3755039   -2600.9389   0.88687114 
  366000    319.62054   -1073.5674    6.5689574    1.3186602     10.83359   0.88242852 
  368000    339.86799   -1073.7401    6.9850904    1.1429109    5706.9455   0.88774729 
  370000    328.02021   -1073.7788    6.7415904    1.4644634   -1617.6769   0.88506014 
  372000    294.15406   -1073.9399     6.045561     1.014851   -2754.3026   0.88350009 
  374000    268.57924   -1073.8774    5.5199381    1.3374683   -2409.6604   0.88608609 
  376000     270.0047   -1073.1568    5.5492346    1.2281055    4863.6501   0.88907497 
  378000    276.30921   -1073.9072    5.6788072    1.6111879   -2400.6849   0.88654219 
  380000    302.41995   -1073.7653    6.2154446    1.1186839    1878.0363   0.88377607 
  382000    308.81521   -1073.3135    6.3468822    1.3619252   -2931.1908   0.88726315 
  384000    294.00752   -1072.8909    6.0425493    1.4699452    87.927741   0.88419155 
  386000    316.72359   -1072.7145    6.5094182    1.3778411    2256.4946   0.88472927 
  388000    291.27958   -1073.2816    5.9864836    1.6521044   -4699.7058   0.88649887 
  390000    292.73935   -1073.3181    6.0164854    1.3774021   -1245.3454   0.88916862 
  392000    284.37908    -1072.911    5.8446622    1.2850787    2524.7185   0.88694472 
  394000    298.35603   -1073.2508    6.1319215    1.4599899   -1078.9547   0.88450956 
  396000    278.24724   -1073.1438    5.7186383    1.2649983   -1275.2983    0.8836009 
  398000     338.2761   -1073.4597    6.9523733   0.94626148     4212.467   0.88806384 
  400000    296.06115   -1073.6358    6.0847563    1.1105626    2552.0866   0.88695316 
  402000    313.94615   -1072.8587    6.4523352     1.962772   -8103.9987   0.88239274 
  404000    315.29329   -1073.8943    6.4800222    1.2916401   -715.46201   0.88644454 
  406000    280.18757   -1073.0668    5.7585166    1.4189422    5076.3427   0.88770253 
  408000    326.87254   -1073.4139     6.718003    1.3288364     1655.886   0.88755917 
  410000    303.61648   -1073.8666    6.2400361    1.1875552   -3231.0705    0.8823477 
  412000    281.03601   -1072.6192     5.775954    1.7177324    1459.8786   0.88935355 
  414000    273.63095   -1074.1017    5.6237627    1.6478354   -267.19928   0.88958592 
  416000    325.61486   -1072.8585    6.6921548    1.9728716   -3282.6146     0.884347 
  418000    312.91031   -1074.0921    6.4310464    1.0117278    4897.7527   0.88956759 
  420000    275.71264   -1073.6619    5.6665464    1.1716682    -2483.335   0.88541584 
  422000      343.723   -1073.9358    7.0643199    1.2953195    3890.5344   0.88847987 
  424000    275.49883    -1074.634     5.662152   0.79783002   -398.32627   0.88484195 
  426000     352.0393   -1073.2975    7.2352395    1.4985617   -4049.0434    0.8847884 
  428000    275.40665   -1073.7833    5.6602574    1.4431436     3456.698   0.89098277 
  430000    301.30366   -1073.9062    6.1925023    1.1850049     4047.218   0.88627079 
  432000    302.53445   -1073.8082    6.2177979    1.2902431   -2850.7891   0.88582825 
  434000    299.54709   -1073.1575    6.1564005    1.0918923    3021.3033    0.8862831 
  436000    309.20347   -1073.6383     6.354862    1.2942563   -1314.0735   0.88440486 
  438000    291.69005   -1073.9494    5.9949199    1.3627201   -865.85455   0.88418861 
  440000    289.56337   -1073.3813    5.9512115    1.0636994    5502.7912   0.88587373 
  442000    262.19247   -1072.5515    5.3886748    1.4174466   -3407.5047    0.8815957 
  444000    343.41559   -1073.0828    7.0580018    1.4659545    2336.2776   0.88750322 
  446000    296.71546   -1073.5987    6.0982038    1.5330819    3280.1074   0.89134844 
  448000    309.21719   -1073.4752     6.355144    1.3709005   -969.08712   0.88571449 
  450000    283.51767   -1074.1274    5.8269581    1.4140485   -117.31049   0.88738487 
  452000    309.25281   -1072.9339    6.3558759     1.368794    5623.9255   0.88901681 
  454000    317.39305   -1073.3838    6.5231772    1.6889934   -1435.3901   0.88895846 
  456000     294.7112   -1073.2765    6.0570117    1.9631126   -4893.0662   0.88394477 
  458000    275.53626    -1073.712    5.6629213    1.2747637    2079.0323   0.88890439 
  460000    302.55399   -1073.2834    6.2181994    1.5572013   -2506.4251   0.88417131 
  462000    344.52895   -1073.4484     7.080884    1.6799642   -4695.3519   0.88631139 
  464000    287.93657   -1073.8101    5.9177769    1.1330814    3414.1627    0.8891522 
  466000    282.42849   -1072.6268    5.8045728    1.4556402   -1630.7494   0.88590261 
  468000    280.75215   -1073.8287    5.7701202    1.2838569   -2940.5561   0.88508298 
  470000    304.79594   -1073.8308    6.2642769   0.82127478    7213.3159   0.89018323 
  472000    313.97671   -1073.4885    6.4529634    1.7338985   -1335.2274   0.88603736 
  474000    345.94186   -1074.1889    7.1099226    1.3576417   -642.23448   0.88727901 
  476000     306.1038   -1073.5079    6.2911564    1.2548598    6814.9143   0.88780303 
  478000    270.91967   -1073.1664    5.5680395    1.7176769   -2566.1633   0.88650054 
  480000    305.73922   -1074.0188    6.2836635    1.2095883    1111.0658   0.88578272 
  482000    296.39744   -1073.9737    6.0916678    1.2933589    2384.6818   0.88496057 
  484000    299.88978   -1073.4484    6.1634435    2.0281396   -5602.1588   0.88524351 
  486000    295.56682   -1073.5507    6.0745965      1.49268    5002.1912    0.8858144 
  488000    320.91756   -1073.5911    6.5956141    1.1903944    4210.7924   0.88449723 
  490000    303.63815   -1073.3762    6.2404815    1.9111085   -1362.3626   0.88620155 
  492000    308.84876   -1073.5887    6.3475718    1.6145205    1703.0185   0.88640198 
  494000    294.53776   -1073.2724     6.053447    1.4514751    1499.1876   0.88971581 
  496000    279.97685     -1073.04    5.7541859    1.6539806   -3095.9918   0.88135355 
  498000    302.87601   -1073.8264    6.2248178    1.1754508    2329.8957   0.88726908 
  500000    306.12111   -1073.2402    6.2915122    1.5822985   -2673.1463   0.88447443 
  502000    280.08476   -1073.9054    5.7564037    1.4831296   -2022.9534   0.88571618 
  504000    280.43461   -1073.6181    5.7635938    1.5118882    694.11601   0.88531871 
  506000    297.34956   -1073.5878     6.111236    1.3397703    1834.9181   0.88792636 
  508000    299.97338   -1073.2447    6.1651618    1.7290663   -3494.4522   0.88767615 
  510000    303.45016   -1072.9558    6.2366179    1.5014118   -460.95021   0.88254798 
  512000    287.11253   -1073.4582     5.900841    1.1512871    3694.0787   0.88565713 
  514000    308.61818   -1073.3822    6.3428328    1.2586765   -437.11148   0.88765864 
  516000    286.93203   -1073.4914    5.8971313    1.4617211   -2060.3615   0.88446922 
  518000    310.79683   -1073.6675    6.3876094    1.3174878   -359.43442   0.88651144 
  520000    286.88679   -1073.0233    5.8962015    1.6386325    4938.6752   0.88808244 
  522000    274.21631    -1073.243    5.6357931    1.3749151    14.680525   0.88739405 
  524000    287.35302   -1073.4754    5.9057836    1.4070387   -2599.4944   0.88560002 
  526000    320.00551   -1073.3058    6.5768695    1.4083907    1691.2313   0.88537123 
  528000    303.46398   -1073.5668    6.2369019    1.1264031    746.99903   0.88511036 
  530000    292.69086   -1073.3985    6.0154889    1.1701592    -1915.541    0.8834161 
  532000      268.798   -1073.5731    5.5244341    1.3210132   -299.91061   0.88638663 
  534000    296.83534   -1073.7633    6.1006677    1.5286942    1175.9041   0.88711081 
  536000     304.5307   -1073.4891    6.2588255    1.3833593   -1037.9422   0.88466252 
  538000    294.35653   -1073.2053    6.0497222    1.2293727    1714.1084   0.88717339 
  540000    315.52615   -1073.2923     6.484808    1.3924023    6643.4581   0.88852141 
  542000    296.24295   -1074.0271    6.0884927    1.3206564   -2284.5803   0.88412727 
  544000    289.18753   -1074.1144     5.943487    1.2139124    25.741875   0.88488467 
  546000    285.43325   -1073.6532    5.8663277    1.6267141    2072.9808   0.88767321 
  548000    305.01618   -1073.2894    6.2688033    1.1447007     376.6531   0.88441948 
  550000    313.73692   -1073.6951    6.4480352    1.3320379   -3326.1099   0.88526718 
  552000    304.20945   -1073.1179    6.2522231      1.36521    3120.7792   0.88730043 
  554000    282.67025   -1073.5637    5.8095415    1.2854824   -4170.2588   0.88290522 
  556000    285.84829   -1073.8346    5.8748577    1.2995851    1706.8391   0.88699609 
  558000    283.94313   -1073.5365    5.8357023     1.258264   -4926.6365   0.88234506 
  560000    336.51366   -1073.3611    6.9161509    1.2450737    -3281.904   0.88246716 
  562000     298.7431   -1073.6307    6.1398766     1.780262    -3038.342   0.88512823 
  564000    271.03486    -1073.506    5.5704069     1.164093    1640.4954   0.88613655 
  566000    278.99259   -1074.0977    5.7339571   0.90700863   -421.89749   0.88580428 
  568000    268.51401   -1073.1708    5.5185973    1.7291396   -4563.0814   0.88758532 
  570000    289.87476   -1073.5961    5.9576112     1.167514     721.9028   0.88706012 
  572000    293.62492   -1074.1503     6.034686    1.1224079   -106.97445   0.88752727 
  574000    296.60832   -1072.9232    6.0960018    1.3828948   -6277.1515   0.88472633 
  576000    290.35545   -1074.0982    5.9674905    1.2793903   -2609.7949   0.88449805 
  578000    279.27552   -1073.6833    5.7397718    1.4355313   -2119.0317   0.88566933 
  580000    314.29194   -1073.7537    6.4594421    1.1215521    4772.3052   0.88475287 
  582000    299.81078   -1072.9871    6.1618199     1.393448    5508.7681    0.8884144 
  584000    327.68556    -1073.058    6.7347125    1.3586992    4684.9164   0.88805355 
  586000    277.02853   -1073.6477    5.6935909    1.0876976   -1561.5122   0.88498237 
  588000    291.46113   -1073.1907     5.990215    1.6050078   -2963.0954   0.88671982 
  590000    287.22696   -1072.3496    5.9031927    1.3935323   -2003.5676   0.88464932 
  592000    307.44709    -1072.753    6.3187643    1.4878511   -4339.5444   0.88428328 
  594000    323.93776   -1074.0269    6.6576864    1.1487217    3985.4563    0.8879802 
  596000    308.90482   -1074.5199     6.348724   0.99243401    3770.8146   0.88859693 
  598000    302.78101   -1073.9128    6.2228651    1.2151561    3418.4238    0.8898999 
  600000    316.45564   -1073.0645    6.5039113    1.2890209   -1135.9762   0.88513086 
  602000    301.91992   -1072.8392    6.2051679    1.5424062   -3361.2182   0.88569112 
  604000    292.05851   -1072.2852    6.0024925    1.6113174   -3801.7803   0.88517152 
  606000    305.45114   -1074.0926    6.2777428    1.0955576    2794.8238   0.88771192 
  608000    304.27181   -1073.4977    6.2535048    1.0121685    2394.5978   0.88623122 
  610000    289.99643   -1073.9321    5.9601119    1.2387749    4777.8133   0.88963344 
  612000    307.45816   -1073.4148    6.3189917    1.2084752    894.40502   0.88646169 
  614000    306.24203   -1074.3101    6.2939974    1.0524442   -50.260297   0.88792044 
  616000    317.28526    -1074.539    6.5209618    1.0262634    1987.3844   0.88737552 
  618000    314.64199    -1073.796    6.4666364    1.4746768   -1295.6614   0.88505827 
  620000    330.29608   -1073.0145    6.7883649    1.5802543   -5601.1615    0.8821159 
  622000    321.42147   -1074.2413    6.6059707     1.244817    -2299.198   0.88701081 
  624000    310.17139   -1073.1065    6.3747549    1.1397654    1134.7769   0.88491001 
  626000    293.28361   -1074.1629    6.0276713    1.5060556    1472.6085   0.88881131 
  628000     304.6897   -1073.5687    6.2620934    1.0136172    3878.6445   0.88549091 
  630000    285.55714   -1073.5581    5.8688741    1.4672469   -1358.5088   0.88478296 
  632000    279.80574   -1073.3793    5.7506692    1.6705503    -7053.828   0.88412845 
  634000     308.3017   -1073.3533    6.3363285    1.3790869   -723.18137   0.88550633 
  636000    298.83603   -1074.0452    6.1417865   0.93714864   -336.41937   0.88852956 
  638000    287.25687   -1074.0495    5.9038076    1.3033124    4977.7447   0.89025006 
  640000    276.48879   -1073.3216    5.6824979    1.1793087    4355.5282   0.88892638 
  642000    287.84775   -1072.9149    5.9159516   0.98607267    4384.8213   0.89220002 
  644000    293.51255   -1072.9884    6.0323765    1.6243603   -1497.0152   0.88513103 
  646000    285.29029   -1073.4026    5.8633896    1.4417384   -3820.3735   0.88486052 
  648000    306.59623   -1073.5084    6.3012771    1.5645233   -6512.7561   0.88678745 
  650000    293.84252    -1073.571    6.0391581    1.5080181   -2917.1749   0.88390494 
  652000    279.48581    -1073.577    5.7440938    1.2783258   -2350.3894   0.88591662 
  654000     309.5225    -1072.625    6.3614187    1.4072462    2721.7899    0.8882973 
  656000    303.64182   -1072.9353    6.2405569    1.4597414    4414.0011   0.88971739 
  658000    296.76786   -1072.9379    6.0992808    1.3358494    4097.0549    0.8871358 
  660000    279.74638   -1073.9497    5.7494493     1.373271   -5110.0586   0.88682274 
  662000    320.84625   -1073.4976    6.5941486     1.439254    -2793.442    0.8831949 
  664000    292.02142   -1073.4467    6.0017303    1.5479159   -1064.0155    0.8845555 
  666000    301.51479   -1073.6188    6.1968414    1.0981336    65.672368   0.88098756 
  668000    295.45555    -1073.913    6.0723097    1.2853848    1511.7539   0.88407398 
  670000    310.66406   -1073.2791    6.3848807     1.430532    1771.0415   0.88667641 
  672000    319.53305   -1073.5637    6.5671593    1.0397857    5436.6472   0.88985473 
  674000    307.58932   -1074.1424    6.3216874    1.3160082    1803.6655    0.8872881 
  676000    309.37669   -1073.7708    6.3584221    1.4591865    682.16988   0.88666813 
  678000    311.04732   -1073.3949    6.3927574    1.7801258   -5281.6722   0.88845116 
  680000     292.0519   -1073.9041    6.0023567    1.5749925   -1222.3278   0.88590646 
  682000    288.75212   -1074.1011    5.9345383    1.1340484    2755.4822   0.88667435 
  684000    332.15603   -1073.6312    6.8265913    1.2099831    5012.8313   0.88801812 
  686000    297.55627   -1073.3002    6.1154845     1.407822    3051.2177   0.88755403 
  688000    263.83904   -1073.1262    5.4225157    1.4231364    1153.7803   0.88520917 
  690000    332.69137   -1072.8325    6.8375938    1.4906209    446.67541   0.88513935 
  692000    296.41244   -1073.9191     6.091976    1.6476724   -2907.9796   0.88335244 
  694000    305.95484    -1073.823    6.2880949    1.2681769    699.14203   0.88786118 
  696000     313.9901    -1073.723    6.4532384    1.5783812     2088.044   0.88560571 
  698000    308.71347   -1073.7089    6.3447913      1.41543    5001.5265   0.88796143 
  700000    283.17123   -1073.6317     5.819838     1.231923    5653.0104   0.88636904 
  702000    291.31366   -1073.9099    5.9871841    1.4076917    946.65356   0.88432774 
  704000    287.60607   -1073.1916    5.9109844    1.6081972   -2513.2767   0.88269824 
  706000    300.23502   -1073.9268    6.1705391     1.611833   -2341.3398    0.8843522 
  708000    315.26245   -1074.5362    6.4793884    1.3063372     1132.932   0.88573799 
  710000    268.55048   -1073.0637    5.5193469     1.368895    2461.1919   0.88763033 
  712000    295.25842   -1072.0214    6.0682582    1.3785857    2153.3275   0.88958847 
  714000    295.92352   -1073.6993    6.0819277    1.4025854    4641.3005   0.88648634 
  716000    277.78688   -1074.0944    5.7091769    1.1966849   -1517.5408   0.88500305 
  718000    264.30168   -1073.2537    5.4320242    1.5322041   -4979.9526   0.88130307 
  720000    284.21401   -1073.3958    5.8412695    1.2150966   -2022.8342    0.8812423 
  722000    299.40442   -1073.5277    6.1534684    1.3962066   -993.63898   0.88713998 
  724000    285.14809   -1073.8294    5.8604671    1.2718225    4355.2402   0.88958998 
  726000    313.30478   -1073.8073    6.4391536    1.3386151    878.86189   0.88783562 
  728000    322.52761   -1072.9497    6.6287045    1.6091276    5179.2973    0.8876091 
  730000    284.80132   -1074.1628    5.8533401    1.2987669    286.00627     0.886656 
  732000    273.37929   -1073.9246    5.6185904    1.5302764    2098.6836     0.889051 
  734000    274.61219   -1074.0568    5.6439295    1.9759533   -3086.6841   0.88734949 
  736000    307.07541   -1073.8088    6.3111252    1.1766378   -1337.1902   0.88318658 
  738000    290.02263   -1074.0474    5.9606503    1.5213131   -1654.2369   0.88790149 
  740000    273.72828   -1073.5038    5.6257631    1.7471179    6941.2308     0.890767 
  742000    304.31676   -1073.5405    6.2544286    1.2606369    2401.3632   0.88560179 
  744000    304.16753   -1073.7125    6.2513616    1.0734793    5989.0022   0.88861948 
  746000    265.89977    -1073.923    5.4648687    1.1457928   -2009.9337   0.88524601 
  748000    291.14393   -1073.7488    5.9836958    1.3922552   -2239.6199   0.88741059 
  750000    329.28992   -1073.4404     6.767686     1.375899   -137.15217   0.88427818 
  752000    296.55682   -1073.7086    6.0949434    1.0631726   -830.69536   0.88417782 
  754000    315.55638    -1073.748    6.4854293    1.4180169    2148.7971   0.88743872 
  756000    330.33032   -1073.6115    6.7890687    1.3174907    2631.3407   0.88860112 
  758000    301.47403   -1073.4041    6.1960036      1.72772    42.322901   0.88266725 
  760000    302.99193    -1073.542    6.2272002    1.5983145    2287.4507   0.88758212 
  762000    300.52387   -1074.4974    6.1764757    1.2608436   -1445.9657   0.88857423 
  764000    331.65602   -1073.0259    6.8163148    1.8252412   -2320.5198   0.88390681 
  766000    290.84621   -1073.8409    5.9775769    1.3564932    2629.3506   0.88496422 
  768000    289.99091   -1073.4696    5.9599984    1.6296556    1124.6302   0.88599511 
  770000    298.24053   -1073.5591    6.1295477    1.4979755   -1184.2215    0.8859246 
  772000    310.42156   -1074.6488    6.3798965    1.5369363   -3270.8686   0.88478285 
  774000    311.56305   -1073.5907    6.4033569     1.865083    616.81333   0.88436021 
  776000    282.09894   -1073.2598    5.7977999    1.4416668    5555.3226   0.88654071 
  778000    349.33141   -1073.9365    7.1795859    1.3320675    3044.0727   0.88817931 
  780000    307.58966   -1073.6264    6.3216943    1.5093084    3234.2404   0.88715864 
  782000      272.264   -1073.9246    5.5956686    1.5734495    948.58661   0.88950298 
  784000     285.5964    -1073.806    5.8696809    1.1856795    1373.3294   0.88409224 
  786000    267.63451   -1073.5937    5.5005216    1.3464892    1652.5314    0.8880768 
  788000    323.14642    -1073.716    6.6414226    1.2553828   -358.92116   0.88384542 
  790000    310.45804   -1073.7104    6.3806464    1.6566556   -1157.7744    0.8854018 
  792000    264.26649   -1073.3879    5.4313008    1.7041763   -2835.8387   0.88295067 
  794000      288.865   -1073.2801    5.9368583    1.3027881    1804.9956   0.88316031 
  796000     286.1792   -1073.0797    5.8816589    1.4451595    3068.0848   0.88714233 
  798000    280.40503    -1073.348    5.7629861    1.4015727    117.51456   0.88425857 
  800000     289.8367   -1073.2641     5.956829    1.3997082    5386.9976   0.88966793 
Loop time of 4955.52 on 1 procs for 800000 steps with 160 atoms

Performance: 1.395 ns/day, 17.207 hours/ns, 161.436 timesteps/s
100.0% CPU use with 1 MPI tasks x no OpenMP threads

MPI task timing breakdown:
Section |  min time  |  avg time  |  max time  |%varavg| %total
---------------------------------------------------------------
Pair    | 4219.2     | 4219.2     | 4219.2     |   0.0 | 85.14
Bond    | 8.8885     | 8.8885     | 8.8885     |   0.0 |  0.18
Kspace  | 477.06     | 477.06     | 477.06     |   0.0 |  9.63
Neigh   | 4.2637     | 4.2637     | 4.2637     |   0.0 |  0.09
Comm    | 94.367     | 94.367     | 94.367     |   0.0 |  1.90
Output  | 0.11192    | 0.11192    | 0.11192    |   0.0 |  0.00
Modify  | 145.28     | 145.28     | 145.28     |   0.0 |  2.93
Other   |            | 6.34       |            |       |  0.13

Nlocal:    160 ave 160 max 160 min
Histogram: 1 0 0 0 0 0 0 0 0 0
Nghost:    7294 ave 7294 max 7294 min
Histogram: 1 0 0 0 0 0 0 0 0 0
Neighs:    117843 ave 117843 max 117843 min
Histogram: 1 0 0 0 0 0 0 0 0 0

Total # of neighbors = 117843
Ave neighs/atom = 736.519
Ave special neighs/atom = 1.5
Neighbor list builds = 677
Dangerous builds = 0
unfix 1
unfix 333
fix 1 all nvt temp $T $T ${tdamp}
fix 1 all nvt temp 298 $T ${tdamp}
fix 1 all nvt temp 298 298 ${tdamp}
fix 1 all nvt temp 298 298 0.001

reset_timestep 0
variable     pxy equal pxy
variable     pxz equal pxz
variable     pyz equal pyz
fix          SS all ave/correlate $s $p $d              v_pxy v_pxz v_pyz type auto file S0St.dat ave running
fix          SS all ave/correlate 5 $p $d              v_pxy v_pxz v_pyz type auto file S0St.dat ave running
fix          SS all ave/correlate 5 400 $d              v_pxy v_pxz v_pyz type auto file S0St.dat ave running
fix          SS all ave/correlate 5 400 2000              v_pxy v_pxz v_pyz type auto file S0St.dat ave running
variable     scale equal ${convert}/(${kB}*$T)*$V*$s*${dt}
variable     scale equal 1e-32/(${kB}*$T)*$V*$s*${dt}
variable     scale equal 1e-32/(1.3806504e-23*$T)*$V*$s*${dt}
variable     scale equal 1e-32/(1.3806504e-23*298)*$V*$s*${dt}
variable     scale equal 1e-32/(1.3806504e-23*298)*14767.5143749423*$s*${dt}
variable     scale equal 1e-32/(1.3806504e-23*298)*14767.5143749423*5*${dt}
variable     scale equal 1e-32/(1.3806504e-23*298)*14767.5143749423*5*0.0001
variable     v11 equal trap(f_SS[3])*${scale}
variable     v11 equal trap(f_SS[3])*1.79464031465091e-11
variable     v22 equal trap(f_SS[4])*${scale}
variable     v22 equal trap(f_SS[4])*1.79464031465091e-11
variable     v33 equal trap(f_SS[5])*${scale}
variable     v33 equal trap(f_SS[5])*1.79464031465091e-11
variable     v equal (v_v11+v_v22+v_v33)/3.0
fix          333 all print $d "${ILstep} ${ILtime} ${ILdens} ${ILtemp} ${ILpr} ${ILpe} ${v}" file visco.dat screen no
fix          333 all print 2000 "${ILstep} ${ILtime} ${ILdens} ${ILtemp} ${ILpr} ${ILpe} ${v}" file visco.dat screen no
thermo_style custom step temp pe press v_pxy v_pxz v_pyz v_v11 v_v22 v_v33
run          8000000
PPPM initialization ...
  using 12-bit tables for long-range coulomb (/home/conda/feedstock_root/build_artifacts/lammps_1526417570236/work/src/kspace.cpp:321)
  G vector (1/distance) = 0.0862804
  grid = 4 4 4
  stencil order = 5
  estimated absolute RMS force accuracy = 0.000317158
  estimated relative force accuracy = 2.20254e-05
  using double precision FFTs
  3d grid and FFT values/proc = 729 64
Per MPI rank memory allocation (min/avg/max) = 9.672 | 9.672 | 9.672 Mbytes
Step Temp PotEng Press v_pxy v_pxz v_pyz v_v11 v_v22 v_v33 
       0     289.8367    -1073.262    5386.5089   -7097.3519    215.62437    -3019.588 0.00045200173 4.1719885e-07 8.1816862e-05 
    2000    298.27435   -1073.4647    5990.5335   -6049.5506    4187.1776   -5340.4103   0.43840112 0.0037003836  0.017980009 
    4000    312.58124   -1074.2194     2985.747   -8087.3944    603.11028   -1980.0763    0.3492798 0.0035906443  0.016000313 
    6000    319.69764   -1073.4287    5554.3152   -4959.3677    2847.6892    1075.2623   0.33184096 0.0085746677  0.013807636 
    8000    302.70119   -1074.3946     964.3081   -10514.524   -3135.3699    1064.3096   0.33567449 0.0088653742  0.011891205 
   10000    311.86966   -1073.7951    2276.3734   -6919.6013   -444.39994    -745.6198   0.34500545 0.0070166336  0.010285326 
   12000    303.50633   -1073.8917    2513.0335   -8319.7689   -60.517876   -2730.2784   0.35485918 0.0057362381  0.010624248 
   14000    303.01716    -1073.473   -2012.6355    -6864.957    1050.5984    -1524.747   0.37849583 0.0048310517  0.010346319 
   16000    319.97523   -1073.7875    2787.2339   -5866.7185    -2038.326    1221.5087   0.39237931 0.0041750652  0.011071127 
   18000    296.87787   -1073.4498    2520.7134   -9775.8761     945.1854   -473.07242   0.39575513 0.0038875721   0.01075993 
   20000    328.69152   -1072.8883   -992.00435   -8266.7222    3385.7418    1131.8853    0.3897265   0.00377123  0.010187836 
   22000    331.08557   -1073.4048    2427.8182   -6144.8294    669.35602   -313.77704   0.38391709 0.0039722947 0.0094452896 
   24000    321.05968    -1073.577     1168.448   -6535.2455     3610.307    -684.1124   0.38414816 0.0037341504 0.0090601222 
   26000    296.62873   -1073.8429    1915.1563    -8620.151    2499.8944   -533.38716   0.38905826 0.0034999398 0.0090395671 
   28000    289.04843   -1073.3427    2736.3674   -7991.3838    1676.3972    1076.5313    0.3929335 0.0033978232 0.0092447491 
   30000    315.90327   -1074.1648    4188.4348   -5866.6448    937.60768   -2299.4322   0.39713227 0.0031814161 0.0091263352 
   32000    292.53574   -1073.6031    3360.6221   -8344.3489    553.29246   -1647.9359   0.39980971 0.0029246102 0.0092603221 
   34000    298.99324   -1073.7633    2854.4274   -8908.4159     3349.188    382.65303   0.40409166 0.0027979277 0.0097565728 
   36000    292.12994   -1073.6968    -1060.749   -10730.051   -720.93063   -4621.2499    0.4055024 0.0026692384   0.00938411 
   38000    289.73154   -1073.8139    2996.1426   -6666.2666    234.33184   -668.56417   0.40580452 0.0025506375 0.0094295425 
   40000    313.71806   -1073.6984    721.66547   -6919.4342    -1429.776   -2255.6389   0.40436027  0.002450647  0.010045372 
   42000    294.52577   -1073.8661    2401.9608   -6188.3273    981.82768   -723.06339   0.40500826 0.0024548481 0.0099254766 
   44000    308.80302   -1073.8091    3634.4143   -6039.6396   -3926.9434   -441.91491   0.40390808 0.0024000009 0.0097432455 
   46000    322.87252   -1074.3454    5573.5617   -8339.3524   -1767.1312   -4160.9634   0.40376232 0.0024339639 0.0094137149 
   48000    314.11656   -1073.8249    2084.3689   -6044.5245   -783.43209   -1182.9826   0.40452387 0.0023179462 0.0098961638 
   50000    322.79709   -1073.9893    1304.7235   -6697.6052    1535.0322   -2598.5378   0.40334808 0.0022247345  0.009682879 
   52000     314.1992   -1073.4468    5456.8914   -7510.4675   -3086.5946   -3744.1935   0.40233921 0.0021773593 0.0098066621 
   54000    308.24636   -1073.0183     957.7124   -7695.0137    872.32893     -3644.59   0.40403965 0.0020684167 0.0098190452 
   56000    295.84569   -1073.7008   -1000.1332   -6821.7257    3510.6383   -461.24088   0.40499559 0.0020003317 0.0098467455 
   58000    286.91786   -1074.1447    7138.5469   -8255.1956   -720.31091    1278.3559   0.40414226 0.0020034335  0.009818112 
   60000    316.18196    -1073.379    4339.1019   -7508.2663    833.01286   -715.34202   0.40384969 0.0020286073 0.0096491353 
   62000    288.38955   -1073.4714    4740.9523   -6821.8984   -2063.1626    1442.0797   0.40287153 0.0019773388 0.0097175988 
   64000    296.17353   -1073.7749    2293.3155   -6156.1327    -1679.212   -2155.0884   0.40381446 0.0019224424 0.0097023319 
   66000    310.50736   -1074.1248   -1297.9741   -7539.6168    3146.1323   -1585.1336   0.40596854 0.0018877749 0.0095116366 
   68000    307.93765   -1074.3953    2381.7405   -7554.2253   -3290.4382   -1146.4539   0.40474806 0.0018529622  0.010042628 
   70000    326.05367   -1073.4847    2893.7134    -5731.226    3523.0413   -2896.6816   0.40725644 0.0018618663 0.0098888611 
   72000    301.09824   -1074.1469    3936.0456   -8270.1965   -4846.6633    -220.6946   0.40760429 0.0018552393 0.0096933536 
   74000    285.72449   -1074.0252   -1212.9426   -6579.5949    328.27221   -2263.0588   0.40453058  0.001805794  0.010083114 
   76000    301.63396   -1073.1959    1600.7141   -9383.6545    2047.8942   -4186.8313    0.4035917 0.0018361774    0.0102142 
   78000    283.15434   -1073.3199    3364.2088   -5432.9268   -549.20567   -3744.8625   0.40392883 0.0017834787  0.010043975 
   80000    253.39214   -1073.9256   -316.45192   -7093.9065    461.82898   -1849.3692   0.40377952 0.0017405428  0.010131468 
   82000    292.70395   -1073.8681    1099.0554   -10604.339    1811.6112     974.4387    0.4049787 0.0017346754  0.010208069 
   84000    286.63078   -1073.9065    4488.9763   -5508.0818   -3974.0877   -3279.2696   0.40588769 0.0016894335  0.010077574 
   86000    267.12966   -1074.0092    5291.2623   -12116.133    1878.3381   -3392.0882   0.40631415 0.0016803572  0.010024549 
   88000    304.37871   -1073.3096    3216.2816   -9904.9147   -1364.6701   -1410.7614   0.40786107 0.0016564092  0.009959065 
   90000    288.41997   -1073.3697    5993.5812   -7927.2015    1434.4059   -2373.8006   0.40895123 0.0016000214  0.010040906 
   92000    315.89448   -1074.2633    3275.3244   -6517.0119   -1109.9891   -3142.4649   0.40805731 0.0015810682  0.010264914 
   94000    302.01157   -1073.8068    2014.5877   -6919.2075     2431.942    974.49786   0.40746945 0.0015341669  0.010219479 
   96000    294.54664   -1074.6459    82.070397   -6444.9637    1410.6034   -2387.6647   0.40569988 0.0015092813  0.010138568 
   98000    312.08689   -1073.8428    4574.4763   -6419.4186   -845.34364    270.81601   0.40480972  0.001562787   0.01026768 
  100000    312.76708   -1074.0333   -1163.3474     -9313.93      4296.32   -1255.0699   0.40556664  0.001591619  0.010352024 
  102000    299.01386   -1073.9219    3103.7777   -5336.3614   -737.98965   -1010.2139   0.40645867 0.0015978055   0.01024655 
  104000    278.24234   -1073.6901     3204.796   -6963.2802    543.60505   -2428.7026   0.40781631 0.0016088775  0.010273113 
  106000    311.00643   -1073.3874    369.28687   -7716.0317    19.219728   -1824.2478   0.40781324 0.0015993669  0.010336123 
  108000    334.16161   -1073.6777    4901.5783   -5846.3778    2.3661604     471.6273   0.40827709 0.0015801054  0.010233737 
  110000    282.52607   -1073.7511    3598.8346   -8182.7952   -2019.4063   -1929.4415   0.40680452 0.0016972697  0.010100539 
  112000    280.77623   -1073.8575    3772.8502   -7158.0131   -2427.0136    2056.0506   0.40572812 0.0016634919  0.010019378 
  114000     300.0671   -1073.5623    5273.0339   -8350.0289   -660.49843    421.58002   0.40558416 0.0016731994  0.010092604 
  116000    297.86502   -1073.7726    2219.1421   -7394.3584    1361.7786   -2025.5486   0.40604193 0.0016577942  0.010308901 
  118000    288.63634   -1074.2021    1058.8677   -4401.3297   -1721.3096   -1069.6764   0.40701586 0.0016472731  0.010267589 
  120000    296.21091   -1073.9554    3878.7968   -8656.6749   -825.28216   -1023.8569   0.40786562 0.0016202634  0.010157604 
  122000    326.56375   -1072.7531    5376.8953    -6896.967   -342.28669    3180.6999    0.4074636 0.0016806699  0.010028344 
  124000    282.63271   -1073.4032   -1301.3816   -5971.6191   -1096.7809   -2376.2836    0.4071868 0.0016553253 0.0098733094 
  126000    272.02798   -1073.0145    3037.0519   -7559.1554   -1001.9577    -2315.715   0.40566697 0.0016654063  0.010081083 
  128000     257.9306   -1074.0663    2452.1537   -7370.4909    327.00486   -2695.0577   0.40525908 0.0016533148   0.01000294 
  130000     290.7661   -1073.3715    528.24143   -8508.1364    1151.7415   -2079.6075   0.40541263 0.0016165333  0.010037779 
  132000    308.81491   -1073.9051    2268.5998   -10655.441    583.59838   -3689.1835   0.40565901  0.001686809 0.0099807327 
  134000    316.03484    -1073.502    4751.7676   -8582.0189   -1163.9379    266.42239   0.40558803  0.001697502  0.010037683 
  136000    294.76334   -1073.7745   -465.50267   -5321.5202    4001.6542   -592.23331   0.40562382 0.0016994104 0.0098947961 
  138000    305.86611   -1073.3408    5308.3731   -8505.2739   -2771.3096   -3620.4381   0.40617233 0.0016952893  0.009807475 
  140000    308.95298   -1073.7837    2040.2669   -6681.1332    1067.5937    -61.41553   0.40573047 0.0016668283 0.0098291986 
  142000    269.67925   -1073.3274   -2728.3735   -9497.7517   -343.06895    1801.8615   0.40568687 0.0016461259 0.0097971454 
  144000    324.07917   -1073.5276    1716.0277   -5897.4724    1738.4209   -1843.2626   0.40620579 0.0016517926 0.0097053773 
  146000    269.77954   -1073.7278    433.35439   -7427.3048    2441.0878   -702.61331   0.40589537 0.0017664072 0.0098007467 
  148000    298.14548   -1074.0437     1988.798   -6080.6601   -1234.9239    -2761.024   0.40583738 0.0017968175 0.0097512446 
  150000    301.59896   -1074.1114   -165.39666   -10290.423    3391.1585   -2891.6677   0.40605672 0.0017611571 0.0098740059 
  152000    268.07996   -1073.1005    -66.53256   -4194.6238    407.44696    416.71268   0.40543437 0.0017920824 0.0099183471 
  154000    283.95073   -1073.5427    732.79944   -8454.5659    1399.4303    700.10018   0.40486192 0.0018292411 0.0098564002 
  156000    272.74855    -1074.388    1348.2631   -8608.6701    3375.9592   -1630.9721   0.40539904 0.0017812298 0.0099719345 
  158000    306.35906   -1074.0449    1513.6866    -7111.916   -3267.9865   -2356.8366   0.40598857 0.0017573636  0.010006768 
  160000    286.60711    -1073.739    2662.6084   -8463.7748    687.07668   -2836.1344     0.405936  0.001732201 0.0099807191 
  162000    300.40713   -1073.4883   -4032.2361   -7964.1669    1313.4649   -3421.1513   0.40656107 0.0017335819 0.0099214777 
  164000    300.00677   -1073.1356      753.276   -9061.8068   -501.58825   -1632.0382   0.40737819 0.0017079617 0.0098416583 
  166000    291.10365   -1073.3281    1250.6056   -8636.8863    2938.6531   -961.76535   0.40617947 0.0017803346 0.0098044752 
  168000    298.82402   -1073.7829    1617.6645   -5442.2077    4570.3299   -900.82825   0.40514627 0.0020174712 0.0097486573 
  170000    307.19359   -1073.2564    3043.4373   -9239.7814   -3277.2093    1970.1318   0.40405458 0.0021267555 0.0097278482 
  172000     304.9504    -1072.451    2575.4426    -8489.525    2214.0575    497.15262     0.403696 0.0021428705 0.0096741118 
  174000    284.94813   -1073.6575    125.03761   -8383.8502    485.16578   -3054.1965   0.40423593 0.0022040708 0.0096327241 
  176000    312.95827   -1073.9178     4482.077   -8055.9004   -719.88366   -1399.6752   0.40364348 0.0021831309 0.0095709681 
  178000    277.08461   -1073.8236     3472.146    -5929.431   -25.620951   -2292.8144   0.40413707 0.0021592782  0.009537251 
  180000     281.3341    -1074.095    1089.1765   -10371.299   -3442.6801   -1323.2835   0.40503105 0.0021743605 0.0094835029 
  182000     278.9772   -1073.9794    2944.7402   -8194.6691    1024.9859   -123.49626   0.40492232 0.0021351473 0.0094941412 
  184000    296.35321   -1073.8144     4364.463   -7795.4211   -1511.6173   -1721.6615   0.40505384 0.0021158731 0.0094793467 
  186000    269.31792   -1073.9238    2493.4848   -9132.7993    272.36399    996.66464   0.40533987 0.0021248433 0.0095697388 
  188000    305.45847   -1073.1828    1881.2367   -6902.1829    1775.1368    1508.7552   0.40462589 0.0021861147 0.0096265807 
  190000    280.74896   -1073.8359    5053.4881   -7711.2008   -1140.3251   -2614.2242   0.40346858 0.0022451192  0.009623452 
  192000    313.31013   -1073.6693    3200.2215   -4577.0948    1848.6721   -2166.6085   0.40319315 0.0023311929 0.0095318054 
  194000    292.49743   -1073.6773    2739.0859   -7893.6087   -15.987344   -3246.1486   0.40255557 0.0023212296 0.0095830234 
  196000    295.76908   -1073.8699    2055.5668   -8090.9553   -902.43662   -2198.7779   0.40327771 0.0023041464 0.0095890869 
  198000     281.9531   -1073.5635    3359.8764   -8245.9343    196.08902    1306.1329   0.40483618 0.0023119936  0.009597185 
  200000    322.42187   -1073.7214    1295.2283   -8276.0739   -626.09069    -2060.519   0.40454676 0.0023044507 0.0096051659 
  202000    255.93876   -1073.6011     4697.795   -9223.9262    -3056.992    169.64882   0.40457322 0.0023652687  0.009600421 
  204000    338.37974   -1072.9799    1055.1216   -7031.6423    194.83344   -3732.0054   0.40464851  0.002324169  0.009531041 
  206000    305.00398   -1073.5371    3266.4107   -6551.5624    136.44902   -204.99268    0.4049665 0.0023830213 0.0095335668 
  208000    289.32179    -1073.317    858.13902   -9298.4497    2933.4299   -4773.5401   0.40491702 0.0023396444 0.0096405315 
  210000    309.54291    -1073.089    3763.0953   -11490.264   -488.62248     -4102.18   0.40545643 0.0023473722 0.0097359911 
  212000    322.91837   -1074.4311    1937.2108    -8079.649     1917.735   -2702.6627   0.40588601 0.0023313718 0.0097695972 
  214000    249.42476   -1073.8454    3781.4156   -8801.7312   -1003.0388   -507.22858   0.40561082  0.002336863 0.0098456524 
  216000    273.61041   -1073.3185   -749.48229   -8518.9942    149.98293   -1029.3916   0.40586005 0.0023828684 0.0097400054 
  218000    300.41082   -1073.9527    599.49459   -7518.9539    3876.8945    1709.9193   0.40611153 0.0023718863 0.0096727391 
  220000     299.2474   -1073.7541     2845.841   -3667.7088   -2601.4846   -3278.0546   0.40538155 0.0023941353 0.0097226638 
  222000    338.40973   -1073.6134    3520.3026   -8311.3794     90.32084   -186.86784   0.40474973 0.0023828303 0.0097598836 
  224000    309.46932   -1073.5231    3593.0365   -8528.2182   -325.87564    292.99899   0.40486197 0.0023668604 0.0097919836 
  226000     322.8839   -1073.2713    1161.8537   -7991.4209   -2199.0284   -3052.4517   0.40471636 0.0023428764 0.0097835766 
  228000    305.24771   -1073.8355    1713.1339   -8045.1731     458.7416    -212.9555   0.40491457 0.0023256766 0.0098811599 
  230000    312.94536   -1072.5973     4305.371   -12491.507     2011.697   -1303.4589   0.40587597 0.0023180663 0.0099112883 
  232000    298.02441   -1073.8065   -1334.4076   -6509.7204     698.4035   -1226.4767   0.40675477 0.0023038373 0.0098774862 
  234000    282.71175   -1074.0049    2405.9419   -7396.4802    1652.0515   -2101.9645   0.40712952 0.0022803389 0.0099659583 
  236000    313.71632   -1073.9562    1735.9744   -8171.4444   -3154.9933   -2623.3612   0.40707414 0.0022729844  0.010010401 
  238000    278.63025   -1073.4132    5972.3658   -10856.035    -1849.076   -1686.0586   0.40724084 0.0022537358  0.010026406 
  240000    334.45222   -1073.3329    4929.6897   -7662.1538   -587.39843   -1860.5703   0.40700642 0.0023102639 0.0099861959 
  242000    286.26883     -1074.31    4304.6277   -7436.8808    1174.4152    -2109.897   0.40603128 0.0024350486 0.0099399563 
  244000    281.09591    -1074.046    2184.1478   -5155.0521    2874.9207   -953.89561   0.40485544  0.002488822 0.0098821166 
  246000    295.79853    -1073.412   -143.91897   -9091.4781    2566.7361    -1453.119   0.40461277 0.0024785091 0.0098670411 
  248000    308.72038   -1073.7052    -1120.171    -7304.166   -393.49607    233.65882   0.40475672 0.0024535748 0.0098908852 
  250000    290.38564     -1073.21   -1987.5678   -5991.9911    4100.2902   -2761.6365   0.40575952 0.0024412257 0.0099313823 
  252000    311.12899   -1073.5813    334.38255   -9661.0199   -1479.4723    457.71958   0.40635312 0.0024327701 0.0099650738 
  254000    293.43519   -1073.9572    3509.1784   -4888.4407   -1301.3098   -980.33855   0.40686216 0.0024115341 0.0099035595 
  256000    287.56805   -1074.0308     3887.116    -5556.299      1752.69   -1335.7207   0.40621104  0.002400679 0.0098663225 
  258000    301.72875   -1073.0311     4872.282   -9199.3746   -8.1649511     -623.347   0.40569544 0.0024300203  0.009864236 
  260000    284.36501   -1074.1123      1761.69   -8900.0288     224.2673   -2664.3079   0.40616116 0.0024577195 0.0098496964 
  262000    283.60061    -1073.626    772.94156   -6838.7296     1659.056   -2263.6093   0.40593841 0.0024456117 0.0098130929 
  264000    280.65806   -1073.8566   -1334.5373   -8244.8581    3846.7519    156.53612   0.40567812 0.0024399149 0.0099178506 
  266000    306.78497   -1073.8893    3786.5941   -8642.9423   -1343.2476   -194.37419   0.40589037 0.0024412004  0.009904388 
  268000    294.63847   -1074.4664    1685.0115   -4453.9469   -1208.0937   -88.762014   0.40617128 0.0024258805 0.0098688954 
  270000    292.16307   -1073.8245    3855.9194   -7760.9007    1807.1653   -264.04654   0.40631535 0.0024033829 0.0098156344 
  272000    297.17168   -1073.5229    2015.5968   -5978.6063     398.5208    90.118301   0.40696714 0.0023894007 0.0098510488 
  274000    277.48878   -1073.5288      3167.76   -6226.3918    1732.2946    1897.9728   0.40729955 0.0023846452 0.0097963365 
  276000    300.87303   -1073.5297   -708.68607   -6158.0795    5719.9384    1512.2023   0.40697381 0.0023847169 0.0097813912 
  278000    283.72919   -1073.0178    2742.6609   -7752.9847    1728.9414    -4162.036   0.40723092 0.0023678922 0.0097929249 
  280000    316.13691   -1074.0163    2950.4471   -5822.3849    3619.5131    1303.7041   0.40699787 0.0023694869 0.0097384355 
  282000    260.11583   -1073.7605    1141.8609    -3542.937   -895.87724   -1505.4521   0.40672719 0.0023595131 0.0097527634 
  284000    297.66245   -1073.8712    1386.4951   -7014.0853    3244.0757   -724.35608   0.40644444 0.0023414093 0.0097389073 
  286000    319.68604   -1073.3964    4313.5056   -8825.2059    305.25461   -1679.4983   0.40652783 0.0023727997 0.0097083938 
  288000    286.09326   -1073.3145    3633.9213   -7810.1287    1161.8387   -3746.6395   0.40646951 0.0023515141 0.0097466819 
  290000     294.5195   -1073.8604   -591.87312   -8687.6724     -3084.61   -929.87546   0.40675346 0.0023394009 0.0097361194 
  292000    285.50424   -1073.2878      4673.14   -5882.4864    2866.0303   -47.573405   0.40729353 0.0023173279 0.0096897949 
  294000    316.31357    -1073.294    417.62631   -8870.0246    -1492.788   -2123.8514   0.40684451 0.0023131202 0.0096829474 
  296000    324.67468    -1073.956    2445.7281   -7773.8788    1399.7598   -3262.5307    0.4065571 0.0023075413 0.0096351043 
  298000    290.20408   -1072.7325   -752.68388   -6760.0319    -6803.284   -2117.8774   0.40673489 0.0023009433 0.0096275709 
  300000     307.6928   -1073.5985    1508.0563   -7785.3497    270.85888   -1088.4482   0.40638635  0.002310911 0.0096415481 
  302000    268.22196   -1073.8727    1426.0595   -5865.5948   -3075.9056   -1028.5609   0.40599785 0.0022897751 0.0097052534 
  304000     315.6307   -1073.8481    2823.7559   -9004.9904    438.41462   -720.13805   0.40559695 0.0022796938 0.0096741383 
  306000    305.12725   -1073.0845    1962.3548   -8151.1149   -1197.6339     4405.739   0.40569342 0.0022691958 0.0096517281 
  308000    321.07029   -1073.5504   -24.293418   -8310.8438    2249.1391   -754.52227   0.40593949  0.002260298 0.0096241614 
  310000    315.30411     -1073.67    2892.0287   -7940.8451   -585.10394    -603.2943   0.40648775 0.0022574068 0.0095824836 
  312000    291.45743    -1073.566    4958.6255   -3506.0341   -90.552374    685.85149   0.40626397 0.0022434406 0.0095569958 
  314000    282.36123   -1073.5221    3757.1996   -7818.7173   -1043.7891    -4069.167   0.40565174 0.0022536734 0.0095626437 
  316000     322.9406   -1074.0298    5138.9201   -8667.6041     1166.539   -1666.2442   0.40498584 0.0023068016 0.0095396062 
  318000     268.7396   -1074.3766    2074.8843   -7406.8856    2149.1216    -4164.518   0.40480578 0.0022958767 0.0095050172 
  320000    265.81402   -1073.9777     2215.587   -5724.0045    45.759207   -1058.9555   0.40472557 0.0022794678 0.0094927291 
  322000    278.58819   -1074.0792    1128.1097   -8312.0896    2239.7759   -3128.9471   0.40471741 0.0022800148 0.0095196194 
  324000    294.31542   -1072.8294    3241.5578    -6673.555    2081.3451    1606.4313   0.40494024 0.0022776356 0.0095138274 
  326000    291.13693   -1073.2171    2587.7021   -3934.3446   -1731.4808    -802.2709   0.40512384 0.0022765004 0.0094841354 
  328000    276.86198   -1074.1636    307.60843   -8876.4694    95.655569   -3707.4002   0.40489091 0.0022754869  0.009489146 
  330000    285.27879   -1072.9386   -1243.9983   -7763.4622    1160.2606   -5221.4655   0.40504202  0.002271472 0.0094737647 
  332000    307.52516   -1073.6552    483.66491   -6603.5644    807.81847   -1004.2757   0.40474114 0.0022764129 0.0094745739 
  334000    263.79746   -1073.5877    709.46557   -10093.934    3326.6132   -1832.4241   0.40460145 0.0022735045  0.009455864 
  336000    297.02635   -1073.8539    145.94454   -8200.4171    451.98654    40.189538   0.40464949 0.0022987174 0.0094419773 
  338000    352.84915   -1073.3016    1057.6726   -8592.3661     793.2158    704.55652   0.40419169 0.0022813014 0.0094134182 
  340000    308.45947   -1073.2515    2046.6907   -6534.3095   -1777.7747   -866.10854   0.40437668 0.0022713801 0.0094023165 
  342000    286.89526   -1074.1096    3216.7708   -6165.2581    3112.7908   -1665.9295   0.40485218 0.0022571996 0.0093822128 
  344000    316.18167   -1073.6759    2308.3704   -8792.6563    4891.7787    420.01903   0.40491396 0.0022444359 0.0093744876 
  346000    285.92853   -1073.9303    2964.1312   -6391.3051    1418.2904   -2415.0231   0.40498222 0.0022483931 0.0093359357 
  348000    288.88727   -1073.4238    5572.5096   -7283.0947    265.81937    440.77346   0.40473935 0.0022384112 0.0093703301 
  350000    331.80084   -1073.4431     -918.748   -6950.9142   -712.03801   -805.69645   0.40489187 0.0022282575 0.0093893804 
  352000    287.78218   -1074.3207     2341.129   -7371.6153   -1685.8424    -1471.326   0.40466759 0.0022282116 0.0093855594 
  354000     294.4469    -1073.278     1343.459    -4660.287   -800.09599   -3508.5733   0.40508762 0.0022408048 0.0094094956 
  356000    297.69657   -1074.1152    2845.5293   -8136.5462   -604.30781   -2342.1973   0.40530279 0.0022560893 0.0093828251 
  358000    298.66732   -1073.5791    1438.5077   -9974.2363   -2049.8713   -4374.8637   0.40570693 0.0022542416 0.0093799428 
  360000     294.5792   -1073.3463    2251.3689   -7619.5156    -1459.788   -3161.3956   0.40562597 0.0022373484 0.0094066913 
  362000    354.20787   -1073.2959   -419.61525   -5164.6873    3860.0514   -1988.5998   0.40547445 0.0022723337 0.0094100656 
  364000    276.72746   -1073.8369    3151.3154   -7551.3611   -1925.8212   -1872.6885   0.40519483 0.0022609038 0.0094019371 
  366000    298.81136   -1073.7298   -1454.2306   -9170.0798    1347.3282   -2683.2481   0.40528423 0.0022488473 0.0093792085 
  368000    285.63162   -1073.8675    2927.0621   -7968.4168   -1770.9424    2200.7769   0.40581695 0.0022558381 0.0093654646 
  370000    275.91607   -1074.1219    1191.1409   -7046.6498   -2011.9017   -785.49961   0.40577472 0.0022437118  0.009404256 
  372000    310.09445   -1073.1769    4037.3747   -7886.6573    2129.0847    1958.5373   0.40592584 0.0022411261 0.0094224546 
  374000    301.49708   -1073.9134    3470.7097   -6383.2994    1706.5406    1249.8109   0.40583412 0.0022397094 0.0094488796 
  376000    297.74119    -1073.485    3404.4448    -9214.673    1018.6614    1317.0652   0.40550192  0.002230603 0.0094348734 
  378000    305.50193   -1073.5647    1676.9716   -8958.8897    5969.7209    616.63445   0.40535412 0.0022539117 0.0094305528 
  380000    290.83744   -1073.6362    1164.2159   -8246.9275    2681.3321   -2245.5179   0.40550521 0.0022378799 0.0093803023 
  382000    313.99217   -1073.3775    133.95584   -7032.8242    1483.9684   -51.316643   0.40543551 0.0022404666 0.0093903571 
  384000    311.96127   -1073.2303   -1022.8792   -4281.9503     1581.984   -1381.7046   0.40509842 0.0022459081 0.0093704071 
  386000    304.34065   -1073.3036   -2476.9297   -8159.1217   -140.60149   -1140.1091   0.40463902 0.0022521527 0.0093229933 
  388000    294.44525   -1072.7098    1324.2386    -6245.035    165.59487   -1942.4292   0.40409057 0.0022402751 0.0092972124 
  390000     320.4539   -1074.3348   -2775.0097   -8709.0321    2343.2413    -861.3218   0.40357686 0.0022625166 0.0092842879 
  392000    284.37551    -1073.725   -1756.3458   -4712.5942    355.61518    1671.2227   0.40349349 0.0022635125 0.0092498319 
  394000    254.40073   -1073.5216    459.63945   -7519.3473    811.11931   -2745.7748   0.40346581 0.0022834489  0.009245274 
  396000    268.62653   -1073.5108    3324.7968   -5019.5105   -720.09511   -2738.6957   0.40328938   0.00229276 0.0092802622 
  398000     302.4635   -1073.8907    3450.5613   -6134.6495    66.129738    -3161.806    0.4032878 0.0022773373 0.0092614986 
  400000    325.48072   -1073.0261    1886.8024   -8201.6158   -1998.7732   -2952.2779    0.4037242 0.0022651422 0.0093019415 
  402000    289.54526   -1073.6001    698.77127   -6811.8795    1856.0025    3529.2729    0.4037853 0.0022612168 0.0093516993 
  404000    295.44125    -1073.174    4177.0359   -7587.7233    830.65736    1116.8813   0.40405859 0.0022524676 0.0092974811 
  406000    318.42531   -1074.5604    3147.0777   -6636.4499    1185.4878    2194.1652   0.40417323 0.0022572456 0.0092901744 
  408000    323.01727   -1074.4296    1377.0633   -7823.2734   -2369.4366   -2086.7522   0.40396836 0.0022514164 0.0092763294 
  410000    307.96681   -1074.2498    2029.9919   -6197.2287    2019.5452   -925.40815   0.40347209  0.002257723 0.0093043224 
  412000    293.10582   -1074.0431     1118.153   -7647.5332    342.21121   -720.70623   0.40353415  0.002296737 0.0093075843 
  414000    312.48962   -1072.9962    3399.7697   -8115.4738     1433.271   -2318.2062   0.40337653 0.0023049683 0.0093288417 
  416000    288.62956    -1073.926    3895.7675   -8422.1028   -3467.7035    384.53633   0.40349626 0.0022947409 0.0094060787 
  418000    294.32874   -1073.1935    1045.1985   -7799.9879   -2656.9649   -1125.8554   0.40360763 0.0022865584 0.0093937641 
  420000    285.63528   -1073.2589    1704.2287   -7715.2331   -146.33962   -104.66286   0.40373539 0.0022735023 0.0094046957 
  422000    269.33251   -1073.2284   -1386.6532   -4967.0114   -168.68432   -3564.6524   0.40366238 0.0022647315 0.0094464112 
  424000    310.38373   -1073.7316    4812.5495   -8581.4492   -1064.6252    1041.5793   0.40367558 0.0022622616 0.0094238242 
  426000    325.87911    -1073.953    1424.0908   -6203.8265    1106.8955   -1970.4988   0.40407509 0.0022714198  0.009423221 
  428000    302.40135   -1073.8583    3458.4671    -6252.869   -1141.9596   -132.01765   0.40367266 0.0022678475 0.0094527043 
  430000    279.99517   -1072.8435    2415.1403   -7470.2797    1482.7802   -74.529843   0.40321981  0.002260727 0.0094664532 
  432000    296.01869   -1073.8314    238.41531   -7293.5106     1458.915    2705.4836   0.40312126 0.0023151816 0.0094590305 
  434000    285.37886   -1073.8558    1291.6013   -8455.1954    778.58764    362.18266   0.40291045 0.0022961879 0.0094630725 
  436000    301.62914   -1073.1917    3204.0934   -7205.0296   -2403.9211    348.90355   0.40301344 0.0022966984 0.0095074371 
  438000    303.17135   -1074.0518    1675.7707    -7978.202   -466.27847    -3063.596   0.40299041 0.0022900941  0.009531032 
  440000    291.67738   -1073.4545    3165.6708   -6902.2018   -162.18384   -1016.3228   0.40286346 0.0022811041 0.0095340664 
  442000    294.26952   -1073.6776     3653.342   -6674.8355    2225.3772   -507.07598    0.4029874 0.0022739993 0.0095196742 
  444000    292.88349   -1074.1711    1226.2446   -8041.4256   -2586.7513     711.7841   0.40325287 0.0022716126 0.0094865225 
  446000    313.09807   -1073.7041    1111.3438    -6395.586    -250.0298   -371.54856   0.40312923  0.002253639 0.0094907555 
  448000     281.5119   -1073.3167    3664.3585   -7818.5698    1912.0542   -1634.7657   0.40286074 0.0022656945 0.0095285414 
  450000    317.01365   -1073.3593    954.85221   -7466.1956   -891.73367    1234.1779   0.40304703  0.002299584 0.0095287275 
  452000    291.47543    -1073.524    745.41095    -9080.906    2094.5932   -86.571521   0.40316686 0.0022963964 0.0094981087 
  454000    285.06081   -1073.3845    1637.1048    -8510.156    2854.0646   -1295.2829   0.40281237 0.0022847421 0.0094939139 
  456000    308.66721   -1073.7247    49.951825    -8733.872    2366.2066   -3395.0014    0.4027843 0.0022817453 0.0094744474 
  458000    284.70354   -1073.5236    2801.3757   -8963.5717      2118.65    -1744.922   0.40308345 0.0022849321 0.0094465663 
  460000    330.21732    -1074.094    3235.7571   -8148.9531   -578.02875   -2056.6985   0.40335054 0.0022781935 0.0094168193 
  462000    250.49207   -1072.9918    845.74889   -7286.6056   -291.73814   -3026.5927   0.40331937 0.0023081832 0.0094100543 
  464000    274.96994   -1074.1871    3588.9688   -5608.3623    1453.6158   -3510.6094   0.40328331   0.00230958 0.0094369323 
  466000    292.80414     -1073.89    1418.1935   -8956.7952    2004.1381   -1170.3883   0.40329689 0.0023009103 0.0094652349 
  468000    313.34408   -1073.4571    1864.0719    -9586.194    2508.0236   -2188.3564   0.40364361 0.0022911638 0.0094923262 
  470000    278.75357   -1073.7708    1171.7598   -4573.0972    3080.2046    1783.3487   0.40379959 0.0022766174 0.0094998189 
  472000    323.48405   -1073.9654    1627.9277   -6203.7173    4081.7734   -1935.4335   0.40358878 0.0022739875 0.0094579078 
  474000     278.9426   -1073.0741    2039.4014   -7815.8687   -217.13131    1244.0377   0.40346563 0.0022754212 0.0095118515 
  476000    265.97284   -1074.1552   -2120.1989   -8500.6098   -494.98871    -2597.028   0.40357557 0.0022868749 0.0094890503 
  478000    341.69672   -1073.4461     1131.571   -7095.6049    4200.2902    895.76102    0.4038948 0.0022919977 0.0094783632 
  480000    302.64445   -1073.5043    7027.0143   -6233.1653   -711.04881   -1658.2593   0.40376555 0.0022901948 0.0094637492 
  482000    311.86396   -1074.1746    742.62329     -9295.87    559.26799   -1414.4855   0.40370382 0.0022797558 0.0094520699 
  484000    311.98263   -1073.4388    6177.3119   -10702.441    -1489.212    2138.9176    0.4039563 0.0022748916 0.0094279278 
  486000    300.83757   -1073.2734    3092.8951   -7825.2708    138.14022   -4249.9286   0.40405394 0.0022730105 0.0094294789 
  488000    282.51775    -1073.678     4399.284   -7228.7981    -322.1584    2093.5962   0.40405657 0.0022854678 0.0094720163 
  490000    295.41541   -1073.5543    1822.5131   -5593.7707   -3548.9411    103.31075   0.40390327 0.0022883847 0.0094592273 
  492000    327.48008   -1073.7277    3763.2853   -3408.6619    242.00821   -3347.4133   0.40377822 0.0022904252  0.009488996 
  494000    327.45129   -1073.4554     5171.581   -8673.5509   -2376.9956    703.80388   0.40383441 0.0022856907 0.0095532581 
  496000    331.18335   -1074.0897    993.26583   -6263.3796    713.36293   -763.31992   0.40426393 0.0022774705 0.0095615578 
  498000    290.42089   -1073.4759    868.96124   -7285.5309   -287.80781    1368.1731   0.40414671 0.0022671599 0.0095290567 
  500000    296.98108   -1073.6055    2367.7658   -7398.5461    2609.7983    1819.6322   0.40401006 0.0022810233 0.0095226135 
  502000    287.71265   -1073.5083   -281.74603   -5965.1901    475.41996   -3363.3025    0.4039102 0.0023092495 0.0094935835 
  504000    295.20336   -1073.9429    5727.1469   -8523.3094   -24.347797   -4636.3944    0.4038277 0.0023000575 0.0095126502 
  506000    300.98701   -1073.8924     56.65239   -7661.6708     43.96309   -1677.6529   0.40406126 0.0023019538 0.0095264874 
  508000    270.72751   -1073.6902    3396.9822   -9442.8924    650.59112   -604.60395   0.40422683 0.0023041666 0.0095119056 
  510000    281.16872   -1073.7751    3654.5981   -5728.2154     833.0714    497.90263   0.40407031 0.0022952326 0.0095178994 
  512000    264.40784   -1074.0917    2538.7185   -10212.691   -1948.4074   -1326.5166   0.40422605 0.0022895613 0.0095281811 
  514000    318.06924   -1073.5954    2678.6729   -8626.1563   -1402.7652    325.78308   0.40421889 0.0022847992 0.0095327136 
  516000     307.6297   -1074.5151    -710.0602   -9037.3503    3516.4592   -3102.1236   0.40425316 0.0022745661 0.0095806228 
  518000    306.73003   -1073.4037    903.00073   -6978.6104   -242.96862   -2546.4183   0.40452471 0.0022679662 0.0095814405 
[...]
 7710000    295.52541   -1073.5536    292.97693   -8850.4199    -974.4359   -1195.1859   0.44885084 0.0024007659 0.0051209736 
 7712000    315.54585    -1073.956    4489.0906   -7725.1064    3595.4763   -191.12563    0.4488432 0.0024004459 0.0051213232 
 7714000    306.45652   -1074.2428    5452.9333   -6088.7264    1932.0344   -275.47708   0.44883535 0.0024029769 0.0051197763 
 7716000    329.71231   -1073.5778     332.6055   -9135.6565   -64.131431   -2016.9008   0.44884207 0.0024040141  0.005119134 
 7718000    273.88891   -1074.3737    2929.8309   -7737.9966    1680.6365    2191.2692   0.44887923 0.0024035649 0.0051181501 
 7720000    318.77432   -1074.1133    1393.4316   -6327.2619    1895.8581   -4907.4589   0.44889898 0.0024029313 0.0051172845 
 7722000    290.51049   -1074.4063    5608.0285   -9724.0701   -1178.3576   -283.99188   0.44889243 0.0024025256 0.0051187734 
 7724000    318.34262   -1074.1843   -923.32002   -3218.6438    3039.2764   -1033.8701    0.4488814 0.0024019584 0.0051175422 
 7726000    289.01123   -1074.8894     3304.626   -8036.1218   -264.91826     3533.779    0.4488678  0.002402125 0.0051170309 
 7728000    293.79722   -1073.5148    4344.9965   -7482.6582    1267.5464     691.0284   0.44885563 0.0024021509  0.005117291 
 7730000    329.25925   -1074.2687     3840.052   -7600.9659   -1710.0952    122.47508   0.44885047 0.0024032056 0.0051178184 
 7732000    273.66862   -1073.7474    5229.4775   -7715.0102    430.37414    -182.8545   0.44884865 0.0024028794 0.0051162957 
 7734000    272.89295   -1074.2458    2045.3303   -6727.9101   -863.84694   -1912.4348   0.44885913 0.0024029716 0.0051157099 
 7736000    329.83501   -1074.1301    2462.0685   -9513.9372    -2370.397   -3520.7211    0.4488528 0.0024026777 0.0051150301 
 7738000    308.91027   -1074.6683    5367.0912   -9957.1804   -2899.0255   -1153.8874   0.44886088 0.0024019617  0.005115914 
 7740000    273.70122   -1074.2635     3049.369   -6770.8381    145.94735   -2092.3821   0.44886631 0.0024011173 0.0051154104 
 7742000     274.7629   -1074.1603    5041.7577   -6842.8119    3527.2207      1213.21   0.44886265 0.0024007858 0.0051142327 
 7744000    304.24819   -1074.9118    1560.0724   -5741.7517    2487.4259    1852.9561   0.44884589 0.0024041295 0.0051136109 
 7746000    322.30077   -1074.9505   -124.14518   -9762.6676    19.195449   -2879.4577   0.44883449 0.0024052169 0.0051127634 
 7748000    305.60573   -1073.8197    1673.3798   -7111.4661    2678.4526   -531.41655   0.44885539 0.0024046491 0.0051128173 
 7750000    281.30599   -1074.5851    870.90402   -6876.4915   -1044.9848   -1489.2736   0.44886627 0.0024040176 0.0051123397 
 7752000    307.10665   -1074.2035   -2259.7399   -10164.084   -1127.1532   -1478.2067   0.44886582 0.0024034751 0.0051129197 
 7754000    313.54605   -1073.7693    332.90307   -8098.4018    1058.9193    1706.1328   0.44886132 0.0024031123 0.0051116912 
 7756000    288.64751   -1074.4794    2049.3121   -7856.2378    2871.5603   -1446.3663   0.44886086 0.0024043592 0.0051104466 
 7758000    282.31461    -1074.502    1543.7733   -4924.2127    2116.4933    647.65439   0.44884812 0.0024040191  0.005110819 
 7760000     308.7585   -1073.5937     3986.989   -10534.822   -1337.7731   -1496.0909    0.4488468 0.0024045246 0.0051112823 
 7762000    312.65076   -1074.0324    519.27649   -8667.2225    2246.0334   -1740.8948   0.44888187 0.0024035444 0.0051106251 
 7764000    300.78403   -1074.1972    951.50197   -9810.1279    1096.1641    639.90162   0.44888451 0.0024026019 0.0051107467 
 7766000    298.07539   -1073.8742    3720.1372   -8361.0068   -1071.7947     -21.5119   0.44889838 0.0024020684 0.0051099021 
 7768000    298.56298   -1074.8436    4750.7086   -9351.1869   -3985.1945   -615.58174   0.44890521 0.0024016802 0.0051094599 
 7770000    314.02375    -1073.531    3085.8084   -4936.4506    1294.6525   -1963.9931   0.44889919 0.0024016981 0.0051094321 
 7772000    302.24431   -1074.3844   -302.79156    -8868.085   -2423.7849   -3515.2823   0.44890413 0.0024015505 0.0051097215 
 7774000    289.56423   -1074.2429    1139.3768    -6197.497    3303.5062     690.2281   0.44891542 0.0024018339 0.0051081237 
 7776000    280.78925   -1073.9451    2126.9148   -10229.359   -55.151808   -3780.3665   0.44891777 0.0024017097 0.0051080221 
 7778000    347.76946   -1074.5968    343.21569   -9147.6737    2321.8783   -1414.8477   0.44892843 0.0024011249 0.0051083918 
 7780000    303.19135   -1074.2798    279.76294   -8943.9045   -2488.2325   -214.13668   0.44894116  0.002400443 0.0051081896 
 7782000    295.84261   -1073.8731    484.22031   -7281.2512    3054.1325    87.023557   0.44893965 0.0023996465 0.0051071207 
 7784000    314.04493   -1074.0702    3270.8297   -7862.2128   -246.98673   -2575.0901   0.44893652 0.0024014955 0.0051085558 
 7786000    309.96542   -1074.1858    7144.3276   -6789.7769   -965.31495    323.65379   0.44892545 0.0024020255 0.0051082206 
 7788000    309.93417   -1073.9007    1041.4756   -11322.143    899.19525     293.7259    0.4489093 0.0024016507 0.0051067794 
 7790000    284.27538   -1074.2257    1409.4051   -7578.8863    352.28468   -637.73723   0.44890513 0.0024028135 0.0051073373 
 7792000    284.00192   -1074.2306    3797.7771   -10200.466   -153.05539   -556.48652   0.44892519 0.0024024507 0.0051070339 
 7794000    318.12498   -1074.1412    3177.1434   -11943.673     1766.298    2221.0762   0.44895814 0.0024019467  0.005106532 
 7796000    292.54892   -1074.1873    3986.4729   -8577.5471    793.82546   -3765.0239    0.4489746   0.00240125 0.0051079987 
 7798000      320.155   -1074.2129    3229.5003   -7395.5529    3150.0904     1985.571   0.44896408  0.002402024 0.0051072181 
 7800000    312.07487   -1074.3238    3067.3056   -5137.6755    1224.6655   -1052.8481   0.44895868 0.0024038344 0.0051059762 
 7802000    312.67303   -1074.8567    5061.3597   -5583.1556    1507.9476    687.23859   0.44895832 0.0024030296 0.0051052713 
 7804000    291.63057   -1074.3002    2537.2715   -7155.1244   -1846.1242    365.92097   0.44895363 0.0024029174 0.0051046974 
 7806000    324.10891   -1074.2088    2422.0462   -9272.2333   -65.066218   -872.46824   0.44894694  0.002402485 0.0051039508 
 7808000    308.04908    -1074.364    1451.2024   -7690.5062   -966.04468   -2025.9754   0.44897327 0.0024022648 0.0051039755 
 7810000    282.72016   -1074.0154    171.49536   -12314.464    389.14206    122.15678   0.44899944 0.0024033269 0.0051055818 
 7812000    300.55343   -1074.4796    1167.3301    -7360.656    1572.1581   -258.03873     0.449024 0.0024015842 0.0051037735 
 7814000    286.34648   -1074.7044    278.40743   -7396.2989    527.92918   -670.53625   0.44901788 0.0024016236 0.0051042367 
 7816000    306.10228   -1074.1184     2991.168   -8895.3769    1441.5255     3296.422   0.44901519  0.002401011 0.0051049905 
 7818000    313.57361   -1074.2287    2762.3191   -6544.3187   -1946.0378    596.97105   0.44899175 0.0024018468 0.0051032295 
 7820000     293.5322   -1074.5821    4412.5142   -7801.0868   -68.817888   -872.30093    0.4489806 0.0024031596 0.0051024989 
 7822000    281.87674   -1074.5572     877.8595   -11733.337    1137.8047   -1164.1931   0.44897867 0.0024031407 0.0051015177 
 7824000    280.35246   -1074.7516    3471.9987   -9175.5263    473.32775    -3602.713   0.44900329 0.0024024864 0.0051014357 
 7826000    307.13022    -1074.642    4557.1037   -7787.3985    1299.4808   -4163.6175   0.44901956 0.0024019926 0.0051031573 
 7828000    230.70924   -1073.7569    68.118762   -6131.6224    1493.0996    360.31856   0.44902943 0.0024014465 0.0051030177 
 7830000    269.38476   -1073.8365     1632.179   -9964.1568    491.61972   -2962.5111   0.44901344 0.0024031247 0.0051017933 
 7832000    282.14593   -1074.7295    3884.2888   -4433.0862    2114.2708   -3536.1844   0.44901009 0.0024039288 0.0051034169 
 7834000    320.11041   -1073.6397    1384.4825   -10581.804    2907.1641     2255.297   0.44902272 0.0024035371 0.0051047004 
 7836000    320.37364   -1074.4617    3327.8061   -6719.5348   -1403.0748   -3577.0304   0.44904691 0.0024031927 0.0051035029 
 7838000     299.5353   -1074.2055    6683.0337   -7611.5276    3264.8274   -200.46015   0.44905182 0.0024038533   0.00510452 
 7840000    308.07772   -1074.7004    2281.7262   -7568.2535    1253.5757    -707.6576   0.44903326 0.0024035671 0.0051034809 
 7842000    303.27798   -1074.3996    3591.9356   -6984.7237   -1392.8479    -934.2308   0.44904191 0.0024030188  0.005102371 
 7844000    302.96734   -1074.6418    953.53261   -9447.6518    -289.5505    995.24511   0.44905809 0.0024024757 0.0051034681 
 7846000    283.22131   -1074.1573    1356.3423   -9039.4811     1613.481    98.852891   0.44905497 0.0024030057 0.0051035574 
 7848000     306.4875   -1073.9313    2970.1163   -5591.0705    3588.2379   -690.78788   0.44904805 0.0024037408 0.0051018392 
 7850000    320.83267   -1074.5955    4089.0799   -9667.3633   -2490.0026    427.21777   0.44904413 0.0024035654 0.0051026004 
 7852000    288.20914   -1074.4557    684.86391   -9703.7159    2338.8519    36.926932   0.44903128 0.0024048739 0.0051033696 
 7854000    320.93292    -1074.077    3079.8104   -9002.9641   -1857.8905    4306.9405   0.44904318 0.0024039664 0.0051021149 
 7856000    257.31227   -1074.4229    3078.3562   -4001.6902   -861.76543   -988.31228   0.44905299 0.0024034103 0.0051015411 
 7858000     300.5916   -1073.6908    2964.6381   -8400.2624   -140.27614   -2858.9665   0.44905291 0.0024049266 0.0051007346 
 7860000     335.4154   -1074.0405    4131.7992   -7164.1023   -4204.0136    1971.7289     0.449041  0.002405118 0.0051011103 
 7862000     304.8569   -1073.4333    1828.1362   -8329.9437    1497.9379   -1962.4932   0.44904103 0.0024049025 0.0051000435 
 7864000    298.46847   -1074.0811    4346.8975   -8123.1706   -700.68461   -1834.7031   0.44904935 0.0024058678 0.0051005767 
 7866000    313.98966   -1074.1046    2319.6026   -7770.2143    782.03467   -1621.5853   0.44905228  0.002405308 0.0050990461 
 7868000     292.0528   -1074.4192    370.98136   -9365.9311    1742.0404    -834.0496   0.44906048 0.0024049934 0.0050992371 
 7870000    303.00406   -1073.5273    1234.7264   -4853.8771   -2145.7401    89.583592   0.44905097 0.0024052156 0.0050992241 
 7872000    279.83345   -1074.4477     6316.091   -6106.4072   -1201.8732   -1603.6453   0.44907582 0.0024045006 0.0050990638 
 7874000    285.88322   -1073.9345    1813.9309   -11143.556    4265.6657   -741.04135   0.44910087 0.0024038273 0.0050985592 
 7876000    300.71214    -1074.567   -96.576946   -8768.9148    613.40676    1678.2585   0.44911211 0.0024034074   0.00509752 
 7878000    318.75089   -1073.7076    1522.9306   -3461.1178    2604.2848   -2522.7714   0.44910667 0.0024034086 0.0050967653 
 7880000    308.58976   -1074.3817    4148.2049   -10822.529    524.03339   -459.41275   0.44909608 0.0024032133 0.0050960446 
 7882000    312.36292   -1074.0412    1515.5976   -8802.5955    1634.6355   -64.106666     0.449087 0.0024029388 0.0050953125 
 7884000    266.49494   -1074.1572    3987.2243   -7230.6243    67.140483   -1756.9713   0.44907344 0.0024026174 0.0050947893 
 7886000    324.22375   -1074.2025    2444.5846   -7964.4818   -1325.6962   -2208.3629   0.44907153 0.0024028783 0.0050934995 
 7888000    283.22194   -1074.8756    2969.7917   -7237.5448    3034.4406   -2480.8998   0.44908642 0.0024023428 0.0050938635 
 7890000    321.31014   -1074.0166    5146.9712   -9048.4929     5.824172    860.98753   0.44908588 0.0024021238 0.0050933712 
 7892000    295.32733   -1074.0913    5036.3511    -8390.938   -584.21888   -3176.8204   0.44911299  0.002401457 0.0050920803 
 7894000    298.45591   -1074.4706    3493.9903   -8343.8641    442.04806    3325.7455   0.44912183 0.0024008186 0.0050933596 
 7896000    293.44275   -1074.7834    1616.8363   -6179.1925   -51.885646    617.98222   0.44911638 0.0024004165 0.0050918806 
 7898000     313.9608   -1074.1127    584.38159   -7605.8558    1173.5256   -1719.7084   0.44908859 0.0024014731 0.0050916909 
 7900000    289.63213   -1074.3168    4070.7183   -7156.4297   -152.31908     611.2767   0.44907576 0.0024018626 0.0050927698 
 7902000    307.39427   -1074.0823    376.71495   -9682.1151    1348.9698     -3693.39   0.44909675 0.0024010964 0.0050919665 
 7904000    310.79505    -1074.486    4400.1877   -7494.7566    389.16979    1352.0516   0.44909239 0.0024004334 0.0050927779 
 7906000    282.64423   -1074.6885   -1828.9556   -6749.9784     4783.742    908.12013   0.44907933 0.0024026576  0.005091036 
 7908000    305.67922   -1074.1791    5363.9775   -9083.3974   -1252.4228    391.61416   0.44905714 0.0024031818 0.0050900898 
 7910000    277.01684   -1073.8651    5154.0027   -10262.235   -562.45545     -1414.64   0.44906162 0.0024021113 0.0050903339 
 7912000    322.10068   -1074.5093    3570.2926    -8085.474     626.4907    671.44154   0.44905985 0.0024020744 0.0050913258 
 7914000    297.32023   -1073.0716    3092.8207   -7303.7784   -2526.5535   -1218.3009   0.44905794 0.0024027055 0.0050914413 
 7916000    293.53149   -1074.7319    4501.9854   -7948.8053   -1957.6363    486.39405   0.44905074 0.0024019441 0.0050900896 
 7918000    311.05244   -1074.7679   -773.22601   -8717.8515   -2109.0431   -3361.7976   0.44905143 0.0024013707 0.0050905565 
 7920000    303.17974   -1074.4956    1722.9617   -7058.2921    -1703.981    -2038.275   0.44905859 0.0024007501 0.0050910369 
 7922000    304.88016   -1074.6978     2530.078   -8983.8194   -308.90319    105.04018   0.44906924 0.0024002674  0.005090493 
 7924000    323.09445     -1074.21    2189.6894   -5279.4724   -2148.3508   -1593.8787   0.44905505 0.0024003584   0.00508996 
 7926000     293.0092   -1073.9372    2023.2925   -5597.8423   -1543.5318    1116.7589   0.44902789 0.0024039647 0.0050899975 
 7928000    311.67462   -1074.7682    4331.0304    -7642.128   -2469.8423   -2885.1685    0.4490118 0.0024038754 0.0050885832 
 7930000    304.10566   -1074.0388   -665.20805   -7915.3202    509.12851   -1795.3909   0.44900822  0.002403184 0.0050942852 
 7932000    303.89224   -1074.2232    5826.2535   -10317.384   -2132.5397   -339.25062   0.44902058 0.0024031451 0.0050945962 
 7934000    310.71764   -1073.8959    5832.5882   -7734.9275   -716.06543   -1927.8596   0.44903847 0.0024022605 0.0050952628 
 7936000    279.90634   -1074.1984   -753.98001    -9236.833    2155.6468    -364.1192   0.44903448 0.0024018211 0.0050942645 
 7938000    264.64176   -1074.0176    2511.7398   -8574.6673    2217.9769    687.67142   0.44901671 0.0024016913 0.0050931788 
 7940000     337.3393   -1074.6971    2353.5463   -8586.2206   -916.02202   -517.28323   0.44901264 0.0024014655 0.0050926905 
 7942000    289.94861   -1073.8504   -574.83029   -9013.9277    567.61148   -1461.2804    0.4490326 0.0024024032   0.00509217 
 7944000    312.38285   -1074.9703    4332.8137   -8572.0765   -1263.5189    1576.9648   0.44903536 0.0024029653  0.005093276 
 7946000    288.18532   -1073.8072    2150.8304   -6695.4987    1359.5482    1608.5674   0.44902061 0.0024030361 0.0050921306 
 7948000    292.85046   -1074.5483    635.69518   -10950.063   -367.53214   -802.54015   0.44899606 0.0024025761 0.0050917302 
 7950000    299.19454   -1074.1676    4229.6563   -7023.4798   -1743.5096   -672.26209   0.44900128  0.002401961 0.0050906228 
 7952000    302.17076   -1073.9133   -734.62873   -9485.7673    1284.4483    -3285.825   0.44901365 0.0024016269 0.0050912181 
 7954000    308.47494   -1073.3565    4931.7328   -6502.2773    5333.6472    4.6496845   0.44902017 0.0024026046 0.0050949842 
 7956000    312.22774   -1074.2566    330.60624   -7243.5483    624.03011   -2383.2877   0.44903063 0.0024027157 0.0050947147 
 7958000     282.5168   -1074.1069     3553.818   -6662.1689    2146.3276    1469.7298    0.4490403 0.0024016909 0.0050938666 
 7960000    297.19695   -1073.9326    3701.6694   -6163.6014   -1155.4892    109.36639   0.44903903  0.002401105 0.0050927937 
 7962000    274.95913   -1074.0975    3151.1919   -6958.2101     3272.065    694.50544   0.44904015 0.0024008506 0.0050917339 
 7964000    308.54276   -1074.5917    2600.7963   -8259.7837    2522.2239    2482.9363   0.44902573 0.0024016662 0.0050903188 
 7966000    239.69594   -1073.8366    4769.4769   -8662.5232   -2002.8695   -2020.6522   0.44903095 0.0024021823 0.0050896955 
 7968000    295.33504   -1074.4952    4556.2147   -7842.0428    -955.6135   -1508.0261   0.44904072 0.0024028115 0.0050903378 
 7970000    296.34729   -1074.5329    2818.2629   -6659.3123    482.13332   -467.60454   0.44903749 0.0024024349 0.0050904733 
 7972000    287.07444   -1074.7408    2213.6902    -7116.509   -859.92804   -125.03246   0.44900488 0.0024029305 0.0050905218 
 7974000    279.60797   -1074.0862   -500.08787   -8002.8659    201.27934   -1990.8416   0.44898175 0.0024024646 0.0050900141 
 7976000    280.92189   -1075.0124    1350.6304   -9696.8675   -4123.5938    -1962.156    0.4489848 0.0024018693 0.0050910471 
 7978000    296.78638    -1073.971    3433.1714   -8905.9969   -868.21817    826.60079   0.44902529   0.00240143 0.0050912577 
 7980000    322.14298   -1074.1007    1206.5072   -6574.8453    -2247.066    672.02644   0.44905599 0.0024008658 0.0050917368 
 7982000    294.98499   -1074.4895    4865.3523   -7721.4787   -2648.6381    218.58578   0.44906229 0.0024004143 0.0050901117 
 7984000    268.45851   -1073.9871    2077.7002   -4612.4848    212.96401   -4779.7016   0.44905498  0.002400823 0.0050891294 
 7986000    302.51013   -1074.3444   -1609.2637   -5091.6768    2235.8231    1462.6713   0.44901516  0.002400652 0.0050890942 
 7988000    350.45851   -1074.4273    3091.1436   -11126.397    780.39558   -460.78218   0.44901093 0.0024002689 0.0050887422 
 7990000    314.52198   -1074.4513   -1240.3781   -10272.851   -2124.2669    2389.8486   0.44905305  0.002400138 0.0050896433 
 7992000    330.99943   -1074.0983    6322.9006   -6390.7815    1.8486004   -774.85548   0.44906932 0.0023995346   0.00508974 
 7994000    303.38737   -1074.3715    1868.1581   -4616.7423    753.91649    -2321.903   0.44906191 0.0024008887 0.0050901686 
 7996000    285.61451   -1074.0053    4912.9275    -9012.033    1010.8297   -2818.5389   0.44905006 0.0024021845 0.0050892935 
 7998000    331.03585   -1073.7217    2826.9904   -9374.5404   -852.63148   -3162.2785   0.44903872 0.0024016722 0.0050889235 
 8000000    269.97239   -1074.5887    3731.8596   -11642.692    1457.5015    1129.9442   0.44905525 0.0024008484 0.0050881489 
Loop time of 46873.1 on 1 procs for 8000000 steps with 160 atoms

Performance: 1.475 ns/day, 16.275 hours/ns, 170.673 timesteps/s
100.0% CPU use with 1 MPI tasks x no OpenMP threads

MPI task timing breakdown:
Section |  min time  |  avg time  |  max time  |%varavg| %total
---------------------------------------------------------------
Pair    | 42485      | 42485      | 42485      |   0.0 | 90.64
Bond    | 73.83      | 73.83      | 73.83      |   0.0 |  0.16
Kspace  | 3136.4     | 3136.4     | 3136.4     |   0.0 |  6.69
Neigh   | 37.424     | 37.424     | 37.424     |   0.0 |  0.08
Comm    | 968.17     | 968.17     | 968.17     |   0.0 |  2.07
Output  | 1.1491     | 1.1491     | 1.1491     |   0.0 |  0.00
Modify  | 109.97     | 109.97     | 109.97     |   0.0 |  0.23
Other   |            | 61.48      |            |       |  0.13

Nlocal:    160 ave 160 max 160 min
Histogram: 1 0 0 0 0 0 0 0 0 0
Nghost:    7322 ave 7322 max 7322 min
Histogram: 1 0 0 0 0 0 0 0 0 0
Neighs:    118531 ave 118531 max 118531 min
Histogram: 1 0 0 0 0 0 0 0 0 0

Total # of neighbors = 118531
Ave neighs/atom = 740.819
Ave special neighs/atom = 1.5
Neighbor list builds = 5296
Dangerous builds = 0
variable     ndens equal count(all)/vol
print        "average viscosity: $v [Pa.s] @ $T K, ${ndens} /A^3"
average viscosity: 0.15218141522782 [Pa.s] @ 298 K, 0.0108345924667925 /A^3
Total wall time: 14:23:48
