LAMMPS (16 Mar 2018)
dimension 3
boundary p p p
atom_style full
units metal
kspace_style pppm/cg 1.0e-4
kspace_modify pressure/scalar no
bond_style harmonic
angle_style harmonic

neighbor 2.0 bin
neigh_modify delay 0 every 1 check yes

region box1 block -40.0 40.0 -40.0 40.0 -40.0 40.0
create_box 4 box1 bond/types 2 extra/bond/per/atom 2 angle/types 1 extra/angle/per/atom 1 extra/special/per/atom 10
Created orthogonal box = (-40 -40 -40) to (40 40 40)
  1 by 1 by 1 MPI processor grid

molecule cat_ion cation_mol.txt
Read molecule cat_ion:
  3 atoms with max type 4
  2 bonds with max type 2
  1 angles with max type 1
  0 dihedrals with max type 0
  0 impropers with max type 0

mass    1  86.8 #anion
mass    2  67.0 #ring
mass    3  15.0 #methyl
mass    4  29.0 #ethyl

create_atoms 1 random 20 1340 box1                     #at least 40
Created 20 atoms
  Time spent = 0.00276899 secs
create_atoms 0 random 20 2345 box1 mol cat_ion 1234    #at least 40
Created 60 atoms
  Time spent = 6.19888e-05 secs
#create_atoms 1 single  10.0 0.0 0.0
#create_atoms 0 single 0.0 0.0 0.0 mol cat_ion 1234
group anion type 1
20 atoms in group anion
group ring type 2
20 atoms in group ring
group methyl type 3
20 atoms in group methyl
group ethyl type 4
20 atoms in group ethyl

bond_coeff 1 87.729 2.689748837
bond_coeff 2 87.729 3.04931147
angle_coeff 1 87.729 144.1868904
pair_style lj/cut/coul/long 30.0
pair_modify mix geometric
################### properties to change
pair_coeff 1 1   2.1896383186706   1.8000977517107
pair_coeff 2 2   1.930596285435    7.0933528836755
pair_coeff 3 3   1.8670576735093   0.54643206256109
pair_coeff 4 4   4.7800586510264   2.747311827957


#create_bonds single/bond 1 2 3
#create_bonds single/bond 2 2 4
#create_bonds single/angle 1 3 2 4


set type 1 charge -1.0
  20 settings made for charge
#set type 2 charge  0.408675
#set type 3 charge  0.317505
#set type 4 charge  0.273820


########################################

write_data solid.data pair ij
PPPM initialization ...
  using 12-bit tables for long-range coulomb (/home/conda/feedstock_root/build_artifacts/lammps_1526417570236/work/src/kspace.cpp:321)
  G vector (1/distance) = 0.0714995
  grid = 8 8 8
  stencil order = 5
  estimated absolute RMS force accuracy = 0.000312959
  estimated relative force accuracy = 2.17338e-05
  using double precision FFTs
  3d grid and FFT values/proc = 2197 512
Neighbor list info ...
  update every 1 steps, delay 0 steps, check yes
  max neighbors/atom: 2000, page size: 100000
  master list distance cutoff = 32
  ghost atom cutoff = 32
  binsize = 16, bins = 5 5 5
  1 neighbor lists, perpetual/occasional/extra = 1 0 0
  (1) pair lj/cut/coul/long, perpetual
      attributes: half, newton on
      pair build: half/bin/newton
      stencil: half/bin/3d/newton
      bin: standard

thermo_style	custom step temp pe ke ebond press density

##################################
variable    T equal 298.0
variable    V equal vol
variable    dt equal 0.0001
variable    p equal 400     # correlation length
variable    s equal 5       # sample interval
variable    d equal $p*$s   # dump interval
variable    d equal 400*$s   
variable    d equal 400*5   

# convert from LAMMPS real units to SI

variable    kB equal 1.3806504e-23    # [J/K/** Boltzmann
variable    bar2Pa equal 100000.0
variable    A2m equal 1.0e-10
variable    ps2s equal 1.0e-12
variable    convert equal ${bar2Pa}*${bar2Pa}*${ps2s}*${A2m}*${A2m}*${A2m}
variable    convert equal 100000*${bar2Pa}*${ps2s}*${A2m}*${A2m}*${A2m}
variable    convert equal 100000*100000*${ps2s}*${A2m}*${A2m}*${A2m}
variable    convert equal 100000*100000*1e-12*${A2m}*${A2m}*${A2m}
variable    convert equal 100000*100000*1e-12*1e-10*${A2m}*${A2m}
variable    convert equal 100000*100000*1e-12*1e-10*1e-10*${A2m}
variable    convert equal 100000*100000*1e-12*1e-10*1e-10*1e-10
timestep     ${dt}
timestep     0.0001
variable    tdamp equal ${dt}*10.
variable    tdamp equal 0.0001*10.
variable    pdamp equal ${dt}*100.
variable    pdamp equal 0.0001*100.
thermo       $d
thermo       2000

variable  ILdens equal density
variable  ILstep equal step
variable  ILtime equal time*1.0e-12 #from ps to s
variable  ILtemp equal temp
variable  ILpe equal pe
variable  ILke equal ke
variable  ILpr equal press

##################################
fix             333 all print 2000 "${ILstep} ${ILtime} ${ILdens} ${ILtemp} ${ILpr} ${ILpe} ${ILke}" file density.dat screen no
dump 1 all dcd $d minim.dcd
dump 1 all dcd 2000 minim.dcd
dump 2 all custom $d dump.atom id mass type x y z
dump 2 all custom 2000 dump.atom id mass type x y z

##################################
##################################
#  Minimize initial
##################################

velocity     all create $T 102486 mom yes rot yes dist gaussian
velocity     all create 298 102486 mom yes rot yes dist gaussian
minimize 1.e-4 1.0e-6 1000 10000
PPPM initialization ...
  using 12-bit tables for long-range coulomb (/home/conda/feedstock_root/build_artifacts/lammps_1526417570236/work/src/kspace.cpp:321)
  G vector (1/distance) = 0.0714995
  grid = 8 8 8
  stencil order = 5
  estimated absolute RMS force accuracy = 0.000312959
  estimated relative force accuracy = 2.17338e-05
  using double precision FFTs
  3d grid and FFT values/proc = 2197 512
  PPPM/cg optimization cutoff: 1e-05
  Total charged atoms: 100.0%
  Min/max charged atoms/proc: 100.0% 100.0%
Per MPI rank memory allocation (min/avg/max) = 10.09 | 10.09 | 10.09 Mbytes
Step Temp PotEng KinEng E_bond Press Density 
       0          298    885643.37    3.0430423   0.12310245     11107660  0.012830258 
     242          298   -76.765482    3.0430423  0.057149599   -8.3885966  0.012830258 
Loop time of 0.212081 on 1 procs for 242 steps with 80 atoms

100.0% CPU use with 1 MPI tasks x no OpenMP threads

Minimization stats:
  Stopping criterion = energy tolerance
  Energy initial, next-to-last, final = 
         885643.372244     -76.7597682328     -76.7654818224
  Force two-norm initial, final = 8.65232e+06 5.94384
  Force max component initial, final = 3.72573e+06 3.60985
  Final line search alpha, max atom move = 0.0255117 0.0920936
  Iterations, force evaluations = 242 418

MPI task timing breakdown:
Section |  min time  |  avg time  |  max time  |%varavg| %total
---------------------------------------------------------------
Pair    | 0.025683   | 0.025683   | 0.025683   |   0.0 | 12.11
Bond    | 0.0021183  | 0.0021183  | 0.0021183  |   0.0 |  1.00
Kspace  | 0.17705    | 0.17705    | 0.17705    |   0.0 | 83.48
Neigh   | 0.0012894  | 0.0012894  | 0.0012894  |   0.0 |  0.61
Comm    | 0.0030749  | 0.0030749  | 0.0030749  |   0.0 |  1.45
Output  | 0          | 0          | 0          |   0.0 |  0.00
Modify  | 0          | 0          | 0          |   0.0 |  0.00
Other   |            | 0.002862   |            |       |  1.35

Nlocal:    80 ave 80 max 80 min
Histogram: 1 0 0 0 0 0 0 0 0 0
Nghost:    349 ave 349 max 349 min
Histogram: 1 0 0 0 0 0 0 0 0 0
Neighs:    954 ave 954 max 954 min
Histogram: 1 0 0 0 0 0 0 0 0 0

Total # of neighbors = 954
Ave neighs/atom = 11.925
Ave special neighs/atom = 1.5
Neighbor list builds = 12
Dangerous builds = 0

reset_timestep 0
fix 1 all npt temp $T $T ${tdamp} iso 1.0 1.0 ${pdamp}
fix 1 all npt temp 298 $T ${tdamp} iso 1.0 1.0 ${pdamp}
fix 1 all npt temp 298 298 ${tdamp} iso 1.0 1.0 ${pdamp}
fix 1 all npt temp 298 298 0.001 iso 1.0 1.0 ${pdamp}
fix 1 all npt temp 298 298 0.001 iso 1.0 1.0 0.01
run             800000
PPPM initialization ...
  using 12-bit tables for long-range coulomb (/home/conda/feedstock_root/build_artifacts/lammps_1526417570236/work/src/kspace.cpp:321)
  G vector (1/distance) = 0.0714995
  grid = 8 8 8
  stencil order = 5
  estimated absolute RMS force accuracy = 0.000312959
  estimated relative force accuracy = 2.17338e-05
  using double precision FFTs
  3d grid and FFT values/proc = 2197 512
Per MPI rank memory allocation (min/avg/max) = 8.968 | 8.968 | 8.968 Mbytes
Step Temp PotEng KinEng E_bond Press Density 
       0          298   -76.765482    3.0430423  0.057149599   -8.3885966  0.012830258 
    2000     341.4133   -84.190264    3.4863594   0.11508542    71.152612  0.019436758 
    4000    278.72361   -111.66165    2.8462005  0.070438405   -125.42205  0.039189655 
    6000     286.9481   -153.69033    2.9301853   0.11095308   -453.18728  0.074749454 
    8000    321.80177   -223.24798    3.2860953   0.16017656  -0.79841382   0.14365037 
   10000    316.17898   -299.64735    3.2286779   0.13048877   -690.89921   0.22650092 
   12000    321.17954   -378.29702    3.2797414   0.28341939   -929.53657   0.32448452 
   14000     318.7391   -466.48831    3.2548207   0.41463226    4386.4832   0.43651279 
   16000    316.24597   -560.26308     3.229362   0.53277168     2671.768   0.55706371 
   18000      316.156   -633.91136    3.2284432   0.96028669   -1971.7111   0.66077802 
   20000    319.24287   -712.69074     3.259965    0.8810562    1372.8369   0.78039813 
   22000    310.77337   -782.34696    3.1734783   0.75640321    2186.5781   0.87604549 
   24000    322.80458   -829.63105    3.2963356    1.1937123   -3559.8593   0.91190976 
   26000    336.64896   -864.66183    3.4377081    1.5745438   -11111.065   0.93187805 
   28000    291.84783   -886.50901    2.9802192    1.3579549   -1890.4082   0.95444987 
   30000    285.68622   -894.68727    2.9172996    1.6902446   -1602.3732    0.9835286 
   32000    329.37281   -911.72845    3.3634074    1.2493278    13113.711   0.99641323 
   34000    292.50171   -920.19889    2.9868963    1.7538968   -2091.6989   0.99571718 
   36000    323.76952   -926.97337    3.3061891    1.7072125    4125.3711    0.9992845 
   38000    324.67189   -934.37907    3.3154037    1.7261489    3979.3247       1.0004 
   40000    336.46414   -938.38545    3.4358209    1.5324906    10781.345    1.0081627 
   42000    260.80833   -946.64532    2.6632577    2.2137775   -11858.839    1.0027443 
   44000    294.09962   -947.71964    3.0032134    1.7024615    962.11741    1.0065679 
   46000    285.22552   -949.13548     2.912595    1.6110888    2438.0655    1.0129299 
   48000    315.46293   -948.39097    3.2213659    1.3791087    5643.8839    1.0090402 
   50000      305.986   -948.62869    3.1245918    1.6277223    891.32119    1.0119634 
   52000    287.06041   -948.20639    2.9313322     1.663518    2506.6349    1.0100948 
   54000    332.35545   -947.97858    3.3938647     1.454429    9893.4879    1.0119609 
   56000    349.21743   -950.32484    3.5660517    2.2197489   -6233.3106    1.0111097 
   58000    280.56417   -950.02003    2.8649955    1.5475421    7103.0814    1.0147824 
   60000    302.81436   -950.12869    3.0922044    1.7909156    -3000.173    1.0077424 
   62000    258.53199   -951.75553    2.6400127    1.7839943   -1010.7586    1.0100594 
   64000    339.00125   -951.69923    3.4617287    2.0809091   -10964.703    1.0066925 
   66000    265.22855   -950.68349    2.7083949    1.5477193    -3386.781    1.0049783 
   68000    281.36895   -951.21029    2.8732135    1.5962239   -3203.0502    1.0100993 
   70000    254.26509   -951.53246    2.5964411    2.1554708    -11722.72    1.0057419 
   72000    266.06469   -951.82241    2.7169332    1.7672644   -68.732924    1.0096249 
   74000    304.63681   -951.50781    3.1108144    2.1169029   -9202.1705    1.0044621 
   76000    295.09796   -952.23189     3.013408    1.7933345    2013.8825    1.0069556 
   78000    276.48851    -951.7699    2.8233766    1.7224626    4394.0449    1.0080074 
   80000    303.02238    -951.8374    3.0943286    2.1269505   -2941.3121     1.003996 
   82000    296.80316   -952.25135    3.0308208    2.4727441   -9860.1369    1.0067348 
   84000    305.84588   -952.53881     3.123161     2.035888   -5347.2789    1.0055556 
   86000    275.65487   -952.62812    2.8148639    2.1647904   -4027.4814    1.0033646 
   88000    273.83368   -952.06922    2.7962667    1.9238643    9658.1055    1.0118574 
   90000    316.88663   -952.25587    3.2359041    2.4164032   -6418.6917    1.0026963 
   92000    270.51116   -952.37808    2.7623386    1.9107904   -2275.8794    1.0052552 
   94000    300.41613   -952.66419    3.0677148    2.0698351   -8127.2425      1.00587 
   96000    300.91452   -952.41754    3.0728041    1.8620142    2959.8484    1.0054631 
   98000    280.19032   -952.31535    2.8611779    1.8428156    10751.534    1.0109801 
  100000    341.75839   -951.83564    3.4898834      2.02779   -597.80538    1.0075443 
  102000    282.29097   -951.81111    2.8826287    2.0287998   -3123.8757    1.0051178 
  104000     277.8262   -952.19949    2.8370366    2.4595211    2158.7892    1.0120242 
  106000     285.0294   -951.84067    2.9105924    2.1570694     -4538.92    1.0067252 
  108000    277.20592   -952.06987    2.8307025    1.9435775     704.0614    1.0066229 
  110000    306.29709   -952.40674    3.1277684    1.9907587    1816.2754    1.0050539 
  112000    276.62215   -952.13366    2.8247414    1.7642325    9424.8346    1.0091962 
  114000    258.78972   -952.05624    2.6426445    2.1777155    -14574.31    1.0026045 
  116000    293.21794   -952.50885    2.9942101      1.98423   -7491.8447    1.0052687 
  118000    268.25586   -952.54726    2.7393085     1.523403    13923.978    1.0101449 
  120000    253.78825   -951.99572    2.5915718    1.9253548    3517.5351    1.0063804 
  122000    268.03676   -951.87366    2.7370712     1.670079    6773.5971    1.0041034 
  124000    340.89575   -952.40278    3.4810745    2.1228161   -5170.2064    1.0055679 
  126000    287.18091    -952.4158    2.9325626    2.2810379   -8624.6793    1.0074002 
  128000    279.80523   -951.62959    2.8572455    2.4640477   -5136.3403    1.0065957 
  130000    296.44803    -952.4669    3.0271943    2.0278267    3878.9223    1.0127833 
  132000    276.68028   -952.10687    2.8253349    1.9783142      1827.76      1.00706 
  134000     275.5649   -952.85557    2.8139452    2.1176562   -7082.0105    1.0056355 
  136000    331.70665   -952.25217    3.3872395    2.2404249    -8826.762    1.0045154 
  138000    302.01538   -952.10698    3.0840456    2.3500788   -4387.3993    1.0040356 
  140000    295.09437   -952.24498    3.0133713    2.2152766   -1734.3604    1.0062627 
  142000    307.73402   -951.92582    3.1424418    2.6585323   -9582.1337    1.0036104 
  144000    265.51462   -951.92605    2.7113162    2.0383082    1150.3392    1.0043862 
  146000    305.46294   -951.73713    3.1192506    2.5425611   -2694.9967    1.0125478 
  148000    271.31502   -952.45416    2.7705473    2.0618137   -5331.9816    1.0037037 
  150000    266.95453   -952.36889    2.7260199     1.738691    1939.6468    1.0039788 
  152000    263.11202   -952.44113    2.6867819    2.0660236   -1344.5834    1.0110031 
  154000    283.59615   -951.89556    2.8959566    1.4147342    5183.2438    1.0044113 
  156000    281.95057   -951.90179    2.8791528    2.5617625   -7451.6665    1.0119252 
  158000    307.35614   -952.29598    3.1385831    2.2807482    -4918.641    1.0037214 
  160000    296.74837   -952.34858    3.0302613    2.2019454   -9633.3986    1.0036132 
  162000    336.28874   -952.28357    3.4340298    1.9879996   -1226.6105    1.0051875 
  164000    294.35413   -952.18508    3.0058124    2.5435748     -8170.78    1.0034726 
  166000    321.44593   -952.31983    3.2824616    2.2332466     4406.388     1.013055 
  168000    350.02154   -952.34087    3.5742629     1.960469    3335.5328    1.0074143 
  170000    302.90658   -952.01881    3.0931461    1.9775322    6728.2731    1.0091963 
  172000    239.87275   -952.16104     2.449473    1.6492729    6218.4725    1.0119585 
  174000    331.09887   -951.95651    3.3810332    2.1869617    7353.3955    1.0082812 
  176000    274.92834   -952.07894    2.8074448    1.6019808    14247.153    1.0127791 
  178000    273.26569   -952.18483    2.7904667    1.6551089    9957.7039     1.010787 
  180000    314.32353   -952.10703    3.2097309    2.6094901   -5714.7731    1.0071666 
  182000    257.31695   -951.82343    2.6276053    2.6191972   -4213.1518    1.0121384 
  184000    272.72573   -952.09383    2.7849528    2.0226444    608.03842    1.0094231 
  186000    290.16235   -952.26647    2.9630078    2.2070841   -5681.4263    1.0032704 
  188000    268.50831   -952.14022    2.7418864    2.1297443    1074.0138    1.0088403 
  190000     313.3985    -952.2052     3.200285    2.0935807    6479.4639    1.0096169 
  192000    266.70547   -952.41615    2.7234767    1.6550503    8902.4355    1.0126913 
  194000    276.30096   -952.12644    2.8214614    1.9641182    15192.553    1.0124534 
  196000    283.55149   -952.29499    2.8955006    2.2597847   -1321.7258     1.009129 
  198000    261.17312   -952.56405    2.6669828    2.6873233   -5892.4151    1.0075707 
  200000    285.56677    -952.1414    2.9160798      2.37105   -5647.5519    1.0046117 
  202000    288.68368   -951.97433    2.9479082    2.0693121     8398.713    1.0122852 
  204000    258.77964   -952.49542    2.6425416    2.1006734   -1823.2997    1.0087447 
  206000    336.15665   -952.09027    3.4326809    2.3096145     1197.579     1.006234 
  208000    279.90157   -952.10726    2.8582293    1.5084394    18135.255    1.0117974 
  210000    269.05105   -951.72482    2.7474286       2.1287   -5443.0252     1.007194 
  212000     261.3927   -952.45833     2.669225    2.7755183   -7120.0941     1.006623 
  214000    290.52301   -952.41889    2.9666907    2.6314663   -10259.583    1.0057711 
  216000    297.48614   -952.48249     3.037795    1.7627536    9237.0187    1.0103894 
  218000    267.75427   -951.79236    2.7341865    1.7040347    2005.5647    1.0028703 
  220000    307.26123   -952.35022    3.1376139     1.931871    1167.5745    1.0115412 
  222000    253.44414   -952.50938    2.5880579    2.3093301   -7706.1984    1.0066388 
  224000     294.0057   -951.47417    3.0022544    2.7865597   -11048.849    1.0042105 
  226000    296.28252   -952.09586    3.0255042    1.9985942   -3195.2424    1.0067142 
  228000    228.89981    -951.8062    2.3374221    2.0302971    6506.4625    1.0072279 
  230000    307.85604   -952.23482    3.1436878    1.8363077    12310.766    1.0097054 
  232000    287.52397   -952.45683    2.9360658     2.016364    1530.9534    1.0129285 
  234000    302.51684   -952.01014    3.0891662    2.9099666   -11085.991    1.0066914 
  236000    258.80497   -952.12251    2.6428003    2.8380134   -7260.8025    1.0052016 
  238000    262.96684   -951.71834    2.6852994    1.5971092    9272.6221    1.0079925 
  240000    299.15951   -952.29482    3.0548827    2.3703605   -4728.2301    1.0085325 
  242000    314.50813   -952.43618    3.2116159     2.096312    -2304.848    1.0042489 
  244000     297.0053    -951.8552    3.0328849     1.969502   -2645.4725    1.0024041 
  246000     346.3359   -952.14761    3.5366269    2.5505183   -3463.5209    1.0074761 
  248000    312.16005   -952.02574    3.1876384    2.3810879   -7693.8257    1.0045612 
  250000    297.53201   -952.06025    3.0382634    1.6705136    3444.0507    1.0052335 
  252000    313.60572   -952.75356    3.2024009    1.8188012    3290.3485    1.0084488 
  254000    376.77604    -951.8342    3.8474679    2.2890541   -5131.5346    1.0039461 
  256000    303.40433    -952.2718    3.0982289    2.1627208   -11950.938    1.0026189 
  258000    293.77306   -951.76778    2.9998788    2.2925159   -8193.9607    1.0053558 
  260000    271.29518   -951.75224    2.7703447    1.8835452    8047.8512    1.0097164 
  262000     297.4735   -952.07658    3.0376659    1.8958689   -6689.9833    1.0037163 
  264000    315.19935    -952.2317    3.2186743    2.7121778   -10443.976    1.0055832 
  266000    269.28118   -952.12592    2.7497786    1.3940014    10082.755     1.010341 
  268000    294.99568   -951.79173    3.0123636    2.2782503    -670.6389    1.0071615 
  270000    305.42111   -951.85269    3.1188234    2.3959094    3496.7128    1.0086632 
  272000    301.22955   -952.21891    3.0760211    1.4450683     7688.929    1.0077497 
  274000    231.20802   -951.87108    2.3609926    2.0192697    6256.1486    1.0127212 
  276000    292.24147   -952.31473    2.9842389    2.5155077   -8043.8135    1.0075836 
  278000    342.24627   -952.57774    3.4948653    1.9163851   -4078.9563    1.0050107 
  280000    277.38366   -951.66254    2.8325175    2.0755503   -3869.3762    1.0075086 
  282000    307.85342   -952.28235     3.143661    1.7888139   -4073.2422    1.0028274 
  284000    313.71048   -952.29768    3.2034707    2.0003016   -7413.5695    1.0060105 
  286000    314.18048   -952.08108    3.2082702    2.4039795    1542.2754    1.0114604 
  288000    268.12458   -952.86269    2.7379679    1.7883283    244.54428    1.0069871 
  290000    316.65162   -951.79463    3.2335043    1.7425997    8330.1118    1.0109257 
  292000    278.51333   -952.14699    2.8440532    2.3010245   -8804.7188      1.00198 
  294000    245.72213   -951.94111    2.5092042    2.0670295    1091.2512    1.0049236 
  296000    337.44844   -951.90483    3.4458721    2.7429197   -16798.445    1.0012168 
  298000    298.24865   -952.45992    3.0455815    2.3493201    4644.6751    1.0122378 
  300000    288.73614   -952.13453     2.948444    2.1281994    904.11869     1.007108 
  302000    308.59318   -952.47683    3.1512152    2.1902705    1695.1879    1.0115624 
  304000    300.25011   -951.91439    3.0660195    1.7825953    1641.8738    1.0048468 
  306000    307.37574   -951.94587    3.1387832    2.7836692   -2618.0315    1.0081998 
  308000    311.82437   -952.17464    3.1842106    2.2455267   -3808.3666    1.0049595 
  310000    330.14997   -951.93401    3.3713434    2.0683047    -4583.905    1.0072787 
  312000     310.6151   -951.74353    3.1718621       2.2443   -3914.6366    1.0041092 
  314000    294.66299   -952.60457    3.0089663    2.0934863    7296.4591    1.0120729 
  316000    331.18912   -952.50392    3.3819548    1.6917561    2824.7151    1.0040913 
  318000    264.58709   -951.43663    2.7018446    2.0175834    14617.774    1.0111985 
  320000    300.43439   -952.07397    3.0679013    1.4421542    2603.4867    1.0049901 
  322000    284.88166   -952.02649    2.9090837    2.1174611    5287.5793    1.0118093 
  324000    308.58267   -951.67199    3.1511078    2.4897821   -3949.2891    1.0060048 
  326000    358.93393   -952.09602    3.6652723    2.7123857   -4219.5161    1.0097595 
  328000    311.67971    -952.2856    3.1827334    2.8216514   -12912.275    1.0062293 
  330000    339.00688   -952.02038    3.4617862    2.7712843    -11230.23    1.0038235 
  332000    317.26565   -952.30739    3.2397745     2.213095    799.88975    1.0091811 
  334000     283.0958    -952.4863    2.8908473    1.9052627    1036.3744    1.0088309 
  336000    334.09075   -951.84901    3.4115849    2.1547703    1961.7059     1.007596 
  338000    252.07865   -951.87045    2.5741141    2.3571717    1853.9858    1.0079901 
  340000    301.02129   -951.86829    3.0738944    2.0368655    10376.582    1.0093504 
  342000    300.89737   -951.91658     3.072629    2.2027893   -7362.2389    1.0054544 
  344000    308.21392    -952.1219    3.1473423    2.2725843   -5556.8453    1.0065978 
  346000    293.65746   -952.32858    2.9986983    1.9744738   -2078.9423    1.0057345 
  348000    308.68003   -951.99948     3.152102    2.9926608   -12146.701    1.0049782 
  350000     319.3897   -951.78338    3.2614643    2.5716666   -4171.9121    1.0088294 
  352000    267.49868   -951.94859    2.7315766    1.9717175   -2049.8954    1.0076415 
  354000    244.89892    -952.4793    2.5007979    1.9294193   -4811.8962     1.005788 
  356000     320.5064    -952.6222    3.2728676    2.1760217   -2378.3975    1.0070247 
  358000    261.48672   -951.95362    2.6701851    1.9837038     15376.96    1.0120487 
  360000     285.6775   -952.20204    2.9172105    2.5022447    433.11805    1.0120524 
  362000    333.84825   -952.17316    3.4091085    1.8109326    6504.0559    1.0099616 
  364000    304.11128   -952.62994     3.105448    2.0803425    2567.5309    1.0073952 
  366000    313.75756    -951.9765    3.2039515    2.1590028   -4366.1678    1.0071164 
  368000     242.8172   -952.09809    2.4795403     3.177372   -10993.377     1.007282 
  370000    336.65026   -952.13168    3.4377215     2.077794    7373.2902    1.0108878 
  372000    289.39641   -951.98458    2.9551863    2.2376332    6274.7287    1.0121191 
  374000    303.81657   -952.21944    3.1024385     1.984379     1562.201    1.0076786 
  376000    300.08897   -952.01762    3.0643739    2.6240256    10561.194    1.0148907 
  378000    266.41484   -952.23897    2.7205089    2.0551434   -3482.4518    1.0052679 
  380000    302.52419   -951.75028    3.0892413     2.964817   -11898.197    1.0041354 
  382000     286.9998   -952.08862    2.9307132    2.2862085   -5654.6609    1.0057616 
  384000    304.93819    -952.2655    3.1138921    2.1169149    541.96006    1.0080273 
  386000    300.40435   -952.31373    3.0675945    1.9849861    677.69654    1.0082174 
  388000    297.09339   -951.79646    3.0337845    2.3942781    7975.2076    1.0100632 
  390000    263.07842   -952.10602    2.6864389    2.0793893    3783.6982    1.0078539 
  392000    271.05275   -951.91302    2.7678691    2.3718349   -3140.0572    1.0060426 
  394000    237.13745   -952.23813    2.4215413    2.0249849    -2068.077    1.0077292 
  396000    275.26288   -952.16784    2.8108611    1.7794628   -4915.6292    1.0029769 
  398000    302.08429   -952.56412    3.0847493    2.1068069   -1202.3441    1.0056511 
  400000    331.67587   -952.07281    3.3869252    2.1345931    3906.6006    1.0079182 
  402000    330.45449   -952.47646     3.374453    2.2545392    1598.9818    1.0064909 
  404000    288.23437   -951.73619    2.9433201    1.7609704     10318.07    1.0089362 
  406000    271.29792   -952.12229    2.7703727    2.7780022    -2566.541    1.0065463 
  408000    298.12532   -952.24657    3.0443221    1.7771726    2982.1831    1.0088272 
  410000    304.36633   -952.09588    3.1080524    1.7048998    3143.3636     1.006948 
  412000    284.07452   -952.31708    2.9008416    2.0020307    4771.4494    1.0071562 
  414000    323.54479   -952.03311    3.3038943    2.9733631   -12346.921    1.0076457 
  416000    317.04856   -952.37759    3.2375577    1.9083178    2080.0703    1.0061807 
  418000    259.75671   -952.43506     2.652519     1.792382   -3117.3778    1.0066967 
  420000    284.14662   -951.99222    2.9015779    1.3982405    12003.573      1.01308 
  422000    284.85472   -952.23564    2.9088086    2.5305548   -7763.9302    1.0072146 
  424000    311.73094   -952.60262    3.1832566    2.1330061    7275.9102    1.0080066 
  426000    262.00531    -951.9584    2.6754807    1.9713655    17754.016    1.0149146 
  428000    294.75922   -952.23409     3.009949    1.8009893    3114.3522     1.008198 
  430000    242.66704   -952.13358     2.478007    2.8375099   -14456.004    1.0035774 
  432000    306.01805   -952.38299    3.1249191    2.2436953   -4430.9697    1.0076835 
  434000    302.73623   -952.13607    3.0914066    2.8613462   -3884.1527     1.007626 
  436000     271.2047   -951.64008    2.7694208    2.3625722    -2898.921    1.0090038 
  438000    315.62608   -952.34657     3.223032    2.2129198   -207.85694    1.0098615 
  440000    348.53624   -952.16185    3.5590957    1.5872746    4456.2123    1.0115187 
  442000    315.08395   -951.85667     3.217496    2.1251957    4149.9439    1.0116623 
  444000    288.67966   -951.93014    2.9478672    1.8469249    1219.7807    1.0088991 
  446000    298.66379   -952.47145    3.0498207    1.9025335   -1678.9179    1.0078639 
  448000    285.10321   -952.20162    2.9113461    2.0837339    5987.6207    1.0078704 
  450000    290.42423   -951.49995    2.9656819    2.2119514    5544.3496    1.0157444 
  452000    300.97882   -952.01028    3.0734607    2.1880809    5939.2891    1.0110914 
  454000    299.97075   -952.16003    3.0631667     2.354576   -2484.4507    1.0039485 
  456000    324.70042   -952.34067    3.3156951    2.1127725   -3449.8472    1.0054879 
  458000    279.70549   -952.17732     2.856227    1.9726259   -2689.7215    1.0065759 
  460000    300.18647   -952.45836    3.0653696    2.0666185    2177.0003    1.0081315 
  462000    273.94703   -952.41311    2.7974242    1.8614647    6988.6715    1.0097818 
  464000    286.63284   -951.96419     2.926966    2.4039998   -11080.858    1.0041886 
  466000     289.4319   -952.32649    2.9555487    2.5327977   -8272.2276    1.0074988 
  468000     265.6395    -952.2635    2.7125915    1.5301493    9036.7666    1.0085509 
  470000     310.7867   -951.27794    3.1736144     2.405672    657.40704    1.0108299 
  472000    318.84476   -952.48736    3.2558996    1.8838226     1404.863    1.0095712 
  474000    308.11942   -952.30156    3.1463773    2.8844815   -18787.845    1.0016851 
  476000    331.16501    -952.1497    3.3817085    2.4146078   -4766.5141    1.0082987 
  478000    266.89216   -952.13114     2.725383      2.69811   -6929.1388     1.005176 
  480000    294.39059   -952.16673    3.0061847    2.3424275   -7338.6878    1.0056735 
  482000    249.12835   -952.61001    2.5439869    2.2055778   -3697.4837     1.006535 
  484000    310.38004   -952.00497    3.1694618    2.4177597   -4285.1857    1.0099324 
  486000     337.2306   -952.25342    3.4436476    1.5978815    5088.2272    1.0070149 
  488000    226.50437   -952.32712     2.312961    2.0704702    3145.0854    1.0117005 
  490000    330.89327   -952.44169    3.3789337    1.9132189    6027.3725    1.0056123 
  492000    307.52549   -952.71727    3.1403124    1.7319438    1337.5139    1.0038249 
  494000    301.10227   -952.41225    3.0747213    1.5786051    -1230.378    1.0092778 
  496000    289.03583   -951.84064    2.9515042    2.3874846   -9434.8157    1.0045227 
  498000    297.57677   -952.13614    3.0387205    2.2735837    211.42851    1.0102181 
  500000    310.41592   -952.32896    3.1698282    2.2281082   -3647.2378    1.0054903 
  502000    255.93328   -952.02896    2.6134758    1.9264891    11371.892    1.0106912 
  504000    287.43366   -951.99458    2.9351436    2.5789113   -3092.1792    1.0091594 
  506000    271.06217   -951.79918    2.7679653    3.1382361   -18956.195    1.0033489 
  508000    300.38424   -952.64418    3.0673891    1.5269643    5759.0583    1.0067151 
  510000    323.39657   -952.49281    3.3023807    2.3234423   -5232.1465    1.0062048 
  512000    347.34736   -952.53919    3.5469554    2.4280101   -11052.533    1.0046774 
  514000    315.81814   -952.20461    3.2249932    2.5850233   -10238.823    1.0038141 
  516000    300.45546   -951.79519    3.0681164    2.6662916   -5589.4472    1.0097422 
  518000    290.22355    -951.9163    2.9636327    1.7450816    8263.3021     1.007772 
  520000    300.48895   -952.29133    3.0684583    1.9987677   -3640.7371    1.0079299 
  522000    300.28113   -952.33643    3.0663362     2.111238    4359.6231     1.007335 
  524000    280.35052   -952.38816    2.8628137    2.7827917   -5117.0955    1.0086449 
  526000     273.2691   -952.11363    2.7905015    2.1830666   -4852.6834    1.0018388 
  528000    300.00942   -952.48154    3.0635616    1.6600595    704.83985    1.0104213 
  530000    252.36649   -952.18817    2.5770534    1.8022738    12234.825    1.0078952 
  532000    321.73932   -952.05506    3.2854576    1.7144844    6676.2814    1.0068982 
  534000     335.6282   -952.69868    3.4272846    1.9644497    44.561406    1.0075219 
  536000    318.22265   -952.27019     3.249547    2.1098912   -4423.4312    1.0058083 
  538000    331.80385   -952.13564    3.3882321     1.819658    4176.4046    1.0099121 
  540000    285.50931   -952.25508     2.915493    1.7106274   -2727.8281    1.0028573 
  542000    264.54907   -951.98948    2.7014565    2.1252842    1060.3137    1.0067283 
  544000    334.55559   -952.38839    3.4163317    2.1836846   -7766.2445    1.0025554 
  546000    241.93994   -952.39578    2.4705822    1.9653613    6142.2263    1.0119729 
  548000    296.44224   -951.71587    3.0271352    2.9783023   -16969.018    1.0016506 
  550000    291.55816   -952.35779    2.9772611    2.0782297   -4423.4426    1.0073325 
  552000    273.92462   -952.46297    2.7971954    2.2708874      2263.54    1.0094134 
  554000    292.57158   -952.16374    2.9876098    3.1706138   -11645.285    1.0069178 
  556000    297.74853   -952.50405    3.0404744    2.3648148   -3729.2931    1.0057212 
  558000    288.06063   -952.35523     2.941546    2.1989952    124.44014    1.0083986 
  560000    250.64615   -951.73459    2.5594861    1.9995576   -505.36437    1.0090003 
  562000    279.39529   -951.75208    2.8530594    2.5155394   -10694.358    1.0049972 
  564000    328.11405    -952.0458    3.3505535    1.9918326    3427.9267    1.0085612 
  566000    285.98978   -952.14406    2.9203993     2.425866    -11381.24    1.0052662 
  568000    309.20412   -952.11732    3.1574538    2.0075562   -18.835068    1.0051325 
  570000    308.91352   -952.35448    3.1544863    2.2599006    2939.9141    1.0125348 
  572000    325.06173   -952.12214    3.3193846     2.115562     4657.776    1.0093148 
  574000    295.49168   -952.31064    3.0174285    1.7632718    14444.429    1.0141071 
  576000    291.33639   -952.32032    2.9749965    1.9127581    4525.1438    1.0119101 
  578000    271.13754   -952.29738     2.768735    1.8226822    12461.758    1.0099182 
  580000    301.73914   -952.44217    3.0812248    2.2819561   -7317.1329    1.0062683 
  582000    301.38515   -951.77059      3.07761    2.1814326   -6503.9666    1.0065044 
  584000     321.0632   -952.30695    3.2785534    2.3760028   -882.73729    1.0041565 
  586000    349.01751   -952.36448    3.5640103    2.1966357   -1723.5394    1.0090895 
  588000    280.53666   -952.06838    2.8647145    1.4333447    9061.5523    1.0105728 
  590000    275.76892   -952.44176    2.8160285    1.7579334    6755.5645    1.0100616 
  592000    279.97087   -952.05503    2.8589369    2.1862764     1803.474    1.0072596 
  594000    298.64743   -951.98721    3.0496536    2.1180526   -679.21901    1.0058543 
  596000    310.92604    -952.4534    3.1750372     1.939032    8277.4291    1.0102619 
  598000     337.4653   -951.97083    3.4460443    2.1085086    9550.3698    1.0104509 
  600000    322.69981   -952.02025    3.2952657    2.6732216     -8985.54    1.0047879 
  602000    312.24058   -951.77382    3.1884607    1.8317902    4041.4398    1.0100243 
  604000     272.0473    -952.1313     2.778025    2.3365279     -7672.69    1.0042403 
  606000    287.97464   -951.50012    2.9406679    2.6348306   -9553.7992    1.0084579 
  608000    339.80349   -952.08108    3.4699209    2.4513676   -7311.4278    1.0033582 
  610000    305.97436   -952.35654     3.124473    1.9900967     7161.636    1.0122421 
  612000    289.91927     -951.959    2.9605255    2.2698221   -3263.1141    1.0063592 
  614000    289.38125   -951.87695    2.9550316    2.3391913   -1875.3877    1.0084429 
  616000    261.92338   -951.72324    2.6746441    2.2000065    1564.3439     1.006493 
  618000    298.59884   -952.19341    3.0491574    1.7088018    4010.3123    1.0053495 
  620000    284.01298   -951.92403    2.9002132    2.0035102   -7548.9531    1.0032146 
  622000     320.6327   -951.96844    3.2741573    2.3703416   -678.89713    1.0082721 
  624000    254.91007   -952.35785    2.6030273    2.0450637    154.58833    1.0080246 
  626000    280.48726   -952.42887    2.8642101    2.2809515   -1107.4952    1.0081142 
  628000    251.07081   -952.38835    2.5638225    2.2753682   -84.509424      1.00627 
  630000      304.849   -951.80444    3.1129812    1.4807392    10903.774    1.0103136 
  632000    351.10708   -951.74125     3.585348    2.0952293   -4392.0428    1.0047343 
  634000    330.45539   -952.12752    3.3744622    2.2897173    2826.4633    1.0082038 
  636000    317.95528   -952.36848    3.2468167    2.0587856    4712.4696    1.0068001 
  638000    306.96902   -952.12644      3.13463       2.4913   -6284.0432    1.0017737 
  640000    289.02723   -952.16536    2.9514164    2.1981242    -11155.66    1.0041486 
  642000     302.4449   -952.45772    3.0884317    1.9081678   -3213.2766    1.0071308 
  644000    271.46615   -952.39439    2.7720906    2.3635787   -5744.3539    1.0084273 
  646000    312.54834    -952.5978    3.1916034    2.3126591   -1124.0426    1.0066831 
  648000    288.82389   -952.53937      2.94934    1.8351378    4951.2503    1.0074092 
  650000    272.96451   -951.45048    2.7873911    1.9087454    8516.1486    1.0073106 
  652000    359.64575   -952.38335     3.672541     1.711294    10518.584      1.01193 
  654000    298.06189   -952.73096    3.0436743     2.460245   -6111.7599    1.0051711 
  656000    299.90453   -951.97997    3.0624905    2.2206804     3898.693    1.0111711 
  658000    310.36355   -951.73279    3.1692933    2.1983544   -788.44005    1.0093313 
  660000    331.83412   -952.29187    3.3885412    2.2854372   -5718.4031    1.0090887 
  662000    290.09416   -952.04914    2.9623115    2.2011409    544.53429    1.0067818 
  664000    285.93838   -952.48364    2.9198745    2.0331569    4821.9434    1.0104163 
  666000    325.31962    -952.3725    3.3220181    2.1934535   -5397.8703    1.0031772 
  668000    331.99938   -951.85461    3.3902287    2.0024136   -4700.6932     1.000505 
  670000    284.30942   -952.18279    2.9032403     1.789081    3341.0074    1.0055015 
  672000    273.57679   -952.35231    2.7936435    1.5615009    13190.489    1.0113374 
  674000    310.79639   -952.67146    3.1737133    1.9677083    2128.5014    1.0085773 
  676000    313.25894   -952.26578    3.1988598    2.0735206    7983.7889    1.0109651 
  678000    304.74854   -951.86662    3.1119554    2.0947218    -291.8196    1.0044647 
  680000    326.30957   -952.07974     3.332127    1.8694277   -1262.4517    1.0062402 
  682000    306.19497   -951.99877    3.1267257    1.9563486   -4757.8403    1.0052765 
  684000    257.25853   -952.41604    2.6270087    2.0216534    850.82517    1.0080506 
  686000    303.78096   -952.11924    3.1020749    2.4641903   -4448.7478    1.0094641 
  688000    330.22779   -952.26225    3.3721381    2.0862537   -2223.1782    1.0093232 
  690000    247.14743   -952.06962    2.5237587    1.9618034    1664.4342    1.0106454 
  692000    272.51513   -951.97627    2.7828023    1.6402235    4956.1454    1.0111683 
  694000    355.42869   -952.45113    3.6294784    1.8793265   -964.27002    1.0049904 
  696000    291.99876   -952.33575    2.9817603    1.7589771    699.68816    1.0080631 
  698000    311.94951   -952.18058    3.1854884    2.3080463   -8584.1751    1.0052548 
  700000     263.9237   -951.97096    2.6950705    1.8335351   -1569.2218    1.0060784 
  702000    251.63478     -952.099    2.5695815    1.6011979    14564.223    1.0130958 
  704000    318.14083   -951.45219    3.2487115    2.5748378   -2027.2209    1.0096967 
  706000    337.91293    -951.7606    3.4506153    2.7653355   -8946.2988    1.0025417 
  708000    294.02923   -952.26537    3.0024946    2.4876611   -195.02879    1.0079753 
  710000    275.60439   -952.59923    2.8143485    2.8466786   -4497.9064     1.010309 
  712000    296.97838   -952.35254      3.03261     1.975713    3309.3086    1.0074477 
  714000    282.14495   -951.97636    2.8811376    2.4889498   -2345.3002    1.0104508 
  716000    346.58703   -952.17432    3.5391913    2.3882609   -4021.5242    1.0057075 
  718000    296.71973   -951.91824    3.0299688    2.4834658   -7153.8704    1.0084146 
  720000    331.15764   -952.50342    3.3816333    2.5206103   -8304.1134     1.006526 
  722000    265.84208   -951.98669      2.71466    2.4001196   -2526.4553    1.0102611 
  724000    263.13055   -952.40704    2.6869712    1.6173852    12658.989    1.0135814 
  726000    335.34597   -952.87387    3.4244026     1.874799    3285.5568     1.007192 
  728000    312.38461   -952.11588    3.1899315    2.2740962    5901.6875    1.0122803 
  730000    312.73113   -952.20382    3.1934701    2.6257504   -9539.3156     1.004609 
  732000    296.31243   -952.34052    3.0258097     2.452037   -995.68599    1.0094474 
  734000    300.23237   -952.18969    3.0658383    2.2866308   -672.21696    1.0086243 
  736000    333.05445   -952.06701    3.4010027    1.7058123   -3923.7766    1.0045734 
  738000    303.75311   -951.85253    3.1017905    1.9590441   -2295.6628    1.0069174 
  740000    307.82554   -952.37602    3.1433763    2.4960221   -6550.7198    1.0064308 
  742000    322.00016    -952.3149    3.2881212    1.9169578   -779.61868     1.006105 
  744000    264.36776   -952.42829     2.699605    1.4820269    2623.4809    1.0050571 
  746000    284.11953   -952.09692    2.9013012    1.9860432   -3586.6454     1.008134 
  748000    308.24048   -952.02686    3.1476136     2.034347     6413.166    1.0092956 
  750000    279.37838     -952.186    2.8528867    2.2246947   -6928.4945     1.004892 
  752000    278.89522   -951.88962    2.8479529    2.5986714   -4760.2593    1.0046891 
  754000    267.68587   -952.11133     2.733488    2.3496955   -4091.1852    1.0076415 
  756000    292.92476   -952.30513    2.9912162    2.3934716    2327.9194    1.0083846 
  758000    336.83123     -952.528    3.4395695    2.0070118    1012.5661    1.0081095 
  760000    290.98013   -952.15056    2.9713586    1.4004582    9766.6319    1.0094781 
  762000    296.58352   -952.96782    3.0285779    1.7086262   -1747.4697    1.0037358 
  764000    285.69963    -952.1675    2.9174365    2.3950372    3915.7329    1.0089332 
  766000    297.60498   -951.72351    3.0390086    2.2604871    5100.4822    1.0096574 
  768000    249.02738    -951.7874    2.5429559    2.4635108    96.466435    1.0056232 
  770000    290.87773   -952.39518    2.9703129    2.1946428    807.00835    1.0074284 
  772000    235.68745    -951.8426    2.4067345    2.2863298   -942.54215    1.0069132 
  774000    317.96564   -951.96883    3.2469225    1.7381759   -6680.8636    1.0030669 
  776000    318.99991   -951.78574     3.257484    2.2393451    1492.7737    1.0099508 
  778000    296.39926   -951.24906    3.0266963    2.6141856   -12559.486    1.0058289 
  780000    315.98828   -951.97876    3.2267305    2.1726587   -3176.8723    1.0060102 
  782000    286.96201    -951.4207    2.9303273    1.7277986   -751.04408    1.0049831 
  784000    289.09634   -952.34801    2.9521222    1.8998118    8870.8502    1.0108448 
  786000     277.8107   -951.96024    2.8368783    2.3988331   -995.00677      1.00907 
  788000    325.10843   -951.81316    3.3198615    2.9457231     -19233.2    1.0005081 
  790000     348.8221   -951.98658    3.5620148    2.5731818   -5368.0971     1.003767 
  792000    305.17883   -952.12441    3.1163493    3.0943638   -20303.986    1.0043728 
  794000    307.45748   -952.33798    3.1396179    1.9185928   -141.36542    1.0068462 
  796000    315.10223   -952.41864    3.2176827    1.8115627    9176.8832    1.0086664 
  798000    338.59893   -952.79519    3.4576204    2.2504755    -3014.924    1.0058694 
  800000     307.4257   -952.22139    3.1392933    2.1940491    -10226.06    1.0045395 
Loop time of 2836.83 on 1 procs for 800000 steps with 80 atoms

Performance: 2.437 ns/day, 9.850 hours/ns, 282.005 timesteps/s
100.0% CPU use with 1 MPI tasks x no OpenMP threads

MPI task timing breakdown:
Section |  min time  |  avg time  |  max time  |%varavg| %total
---------------------------------------------------------------
Pair    | 2287.9     | 2287.9     | 2287.9     |   0.0 | 80.65
Bond    | 4.3476     | 4.3476     | 4.3476     |   0.0 |  0.15
Kspace  | 327.44     | 327.44     | 327.44     |   0.0 | 11.54
Neigh   | 1.5436     | 1.5436     | 1.5436     |   0.0 |  0.05
Comm    | 82.149     | 82.149     | 82.149     |   0.0 |  2.90
Output  | 0.061202   | 0.061202   | 0.061202   |   0.0 |  0.00
Modify  | 128.48     | 128.48     | 128.48     |   0.0 |  4.53
Other   |            | 4.866      |            |       |  0.17

Nlocal:    80 ave 80 max 80 min
Histogram: 1 0 0 0 0 0 0 0 0 0
Nghost:    6803 ave 6803 max 6803 min
Histogram: 1 0 0 0 0 0 0 0 0 0
Neighs:    67298 ave 67298 max 67298 min
Histogram: 1 0 0 0 0 0 0 0 0 0

Total # of neighbors = 67298
Ave neighs/atom = 841.225
Ave special neighs/atom = 1.5
Neighbor list builds = 528
Dangerous builds = 0
unfix 1
unfix 333
fix 1 all nvt temp $T $T ${tdamp}
fix 1 all nvt temp 298 $T ${tdamp}
fix 1 all nvt temp 298 298 ${tdamp}
fix 1 all nvt temp 298 298 0.001

reset_timestep 0
variable     pxy equal pxy
variable     pxz equal pxz
variable     pyz equal pyz
fix          SS all ave/correlate $s $p $d              v_pxy v_pxz v_pyz type auto file S0St.dat ave running
fix          SS all ave/correlate 5 $p $d              v_pxy v_pxz v_pyz type auto file S0St.dat ave running
fix          SS all ave/correlate 5 400 $d              v_pxy v_pxz v_pyz type auto file S0St.dat ave running
fix          SS all ave/correlate 5 400 2000              v_pxy v_pxz v_pyz type auto file S0St.dat ave running
variable     scale equal ${convert}/(${kB}*$T)*$V*$s*${dt}
variable     scale equal 1e-32/(${kB}*$T)*$V*$s*${dt}
variable     scale equal 1e-32/(1.3806504e-23*$T)*$V*$s*${dt}
variable     scale equal 1e-32/(1.3806504e-23*298)*$V*$s*${dt}
variable     scale equal 1e-32/(1.3806504e-23*298)*6539.40617516188*$s*${dt}
variable     scale equal 1e-32/(1.3806504e-23*298)*6539.40617516188*5*${dt}
variable     scale equal 1e-32/(1.3806504e-23*298)*6539.40617516188*5*0.0001
variable     v11 equal trap(f_SS[3])*${scale}
variable     v11 equal trap(f_SS[3])*7.94709363935764e-12
variable     v22 equal trap(f_SS[4])*${scale}
variable     v22 equal trap(f_SS[4])*7.94709363935764e-12
variable     v33 equal trap(f_SS[5])*${scale}
variable     v33 equal trap(f_SS[5])*7.94709363935764e-12
variable     v equal (v_v11+v_v22+v_v33)/3.0
fix          333 all print $d "${ILstep} ${ILtime} ${ILdens} ${ILtemp} ${ILpr} ${ILpe} ${v}" file visco.dat screen no
fix          333 all print 2000 "${ILstep} ${ILtime} ${ILdens} ${ILtemp} ${ILpr} ${ILpe} ${v}" file visco.dat screen no
thermo_style custom step temp pe press v_pxy v_pxz v_pyz v_v11 v_v22 v_v33
run          8000000
PPPM initialization ...
  using 12-bit tables for long-range coulomb (/home/conda/feedstock_root/build_artifacts/lammps_1526417570236/work/src/kspace.cpp:321)
  G vector (1/distance) = 0.0937255
  grid = 4 4 4
  stencil order = 5
  estimated absolute RMS force accuracy = 9.98047e-05
  estimated relative force accuracy = 6.93105e-06
  using double precision FFTs
  3d grid and FFT values/proc = 729 64
Per MPI rank memory allocation (min/avg/max) = 9.207 | 9.207 | 9.207 Mbytes
Step Temp PotEng Press v_pxy v_pxz v_pyz v_v11 v_v22 v_v33 
       0     307.4257   -952.21781   -10220.837    643.61033    21630.612   -38855.623 1.6459792e-06 0.0018591565 0.0059990999 
    2000    313.38573   -952.62013   -1772.1728     -5412.83    17667.666   -34538.926  0.022068342    1.5564359    4.4609159 
    4000      268.558   -952.17009   -2069.4935    -4926.828    32702.376   -37378.128  0.033696091    1.6459441    4.2373113 
    6000    332.09463    -952.0045   -10603.165    1283.0237    25210.903   -38854.792  0.026804117    1.6371129    4.2309933 
    8000    249.84929   -952.26734    -2975.022   -7690.8337    20444.272   -38438.625  0.031814082    1.6264841    4.3250783 
   10000    394.98188   -952.28672   -8921.6229   -3635.3822    24011.909   -29874.603  0.032889772    1.6537931    4.4206623 
   12000    345.29514   -952.06087     -3919.93    -4602.839    20802.566   -36702.967  0.031368131    1.6502732    4.3223784 
   14000    274.49921    -952.4252   -4144.8606   -6892.3032    26328.695   -41123.292   0.03174712    1.6358674    4.3579328 
   16000    334.68345   -952.36391   -6485.3745   -124.70138    22941.563   -36465.941  0.029832502    1.6229888    4.4349098 
   18000    299.55844   -951.82009     3541.301   -1709.6417     23682.86   -32417.949  0.032632034    1.6368252    4.3786382 
   20000    308.36402   -951.56368   -4425.0088     1351.229    20426.736   -36101.113  0.033649122    1.6411839    4.3813737 
   22000    251.09622   -952.47758   -5777.9668   -6771.5319      13882.7   -34693.004  0.032642523    1.6343025     4.429799 
   24000    284.27035   -952.42126   -6035.9622   -6283.3468    20801.107   -37468.404  0.032366961     1.629802    4.4087189 
   26000    304.02493   -951.98825   -1091.3136   -2879.2872    26067.353   -35587.584  0.032529599    1.6392643    4.4040179 
   28000    282.31239   -952.39205   -4920.8035    814.39213    26509.926   -34109.261  0.033009283    1.6393552    4.4077246 
   30000     301.5469   -951.95686   -5992.4737   -4103.7325    22362.704   -36725.993   0.03301794    1.6324554    4.4124715 
   32000     282.3822   -951.99965   -6240.1405   -90.224837    24941.973   -35292.821  0.032118558     1.633944     4.402266 
   34000    299.35384   -952.01846    -6316.441    868.82783    21906.001   -36743.119  0.032256734    1.6348306    4.4023954 
   36000    347.08612   -951.99011   -4491.3951    -1538.485    26567.623   -34404.307  0.032344047    1.6349449    4.4400662 
   38000    284.40097   -952.18554   -7914.7082   -6634.9409    20379.118   -32397.592  0.032635654    1.6453701     4.437195 
   40000     313.2738   -952.33546    1892.9869     2846.261    21984.842   -33509.498  0.032609489    1.6432309    4.4207333 
   42000    283.04451   -951.59721   -13421.136    -1954.481    23082.657   -37874.293  0.032441359    1.6438148    4.4415286 
   44000    264.80287   -951.25125   -4227.1282   -885.48871    15593.283   -42225.929  0.032836062    1.6473807     4.451245 
   46000     295.6454   -952.40159    -2578.573   -5680.7405    23361.068   -32080.037  0.033489529    1.6435755    4.4284756 
   48000    267.74564   -952.37608   -10631.537   -2345.5533    17639.085   -35248.427  0.033334422    1.6422187    4.4204677 
   50000    293.72842   -952.16615    4477.6529    367.50033    27062.957   -45791.761  0.032896085    1.6403947    4.4340591 
   52000    317.31253   -952.31749    51.729159   -2706.8714    21266.408   -34753.754  0.033196199    1.6420441     4.438432 
   54000    311.62904   -952.37229    674.06511    3135.9752    24015.309   -41137.558  0.033031138    1.6470891    4.4234713 
   56000    325.17054   -951.83838   -5209.4108   -7148.6658    18865.907   -40827.234   0.03264068    1.6471503    4.4336846 
   58000    276.98975   -952.10865   -5871.4123   -2723.4758    17834.202   -39119.479  0.032692169    1.6465397    4.4410604 
   60000    292.38267   -951.88843    5451.0744    -2570.227    24218.505   -32132.784  0.032585097    1.6490779    4.4426346 
   62000    306.84883   -951.39099   -7229.0061   -13013.003    19788.274   -35878.367  0.032660318    1.6473476     4.431364 
   64000    303.52371   -951.93151   -10588.868   -2165.2658    17175.507   -38927.236  0.033078107    1.6450437    4.4380455 
   66000    236.20425     -951.737   -3089.3886   -6636.4112    22744.422   -37300.272  0.032812032    1.6452628    4.4426436 
   68000    307.09357   -951.78378   -5723.5623   -4813.8593    21980.955    -32450.98  0.032766756    1.6499332    4.4423052 
   70000    305.19314   -952.02145   -4015.0642   -3291.1921    22283.934   -32942.873  0.032796496    1.6486136    4.4501067 
   72000    271.77453   -951.69245   -2267.9654   -5503.3532    24592.596   -35291.421  0.032615034    1.6468003    4.4563004 
   74000    331.62886   -951.74877    10492.749   -5666.0971    24755.694   -32053.431  0.032522536    1.6476421     4.448818 
   76000     317.4647   -951.69542   -9212.5394    -7355.418     19665.37   -29386.461  0.032815219    1.6468955    4.4453141 
   78000    270.35749   -952.09283   -2633.0486   -9628.5896    20141.217   -44435.433  0.033119618    1.6478957    4.4413242 
   80000    281.88407   -951.81391   -3063.9469   -3981.6128    21508.491    -34096.98  0.033064431    1.6489545    4.4472974 
   82000    279.24016   -951.61373    514.94433   -3435.0495    18014.244   -35169.563  0.033218393    1.6469918    4.4381549 
   84000    237.48686   -951.62267     4589.133   -3553.9192    20289.309   -39271.517  0.033199632    1.6459844    4.4437784 
   86000    335.12513   -951.91254   -248.15281   -2834.2475    17482.714   -33191.576  0.032823963    1.6448793    4.4495613 
   88000    268.90774   -951.68955   -700.08623   -6042.9771    20806.397   -34386.752  0.033586844    1.6480637    4.4429714 
   90000    263.96758   -952.05915   -3661.9916   -1171.5543    21733.068   -44210.801  0.033369126     1.645316    4.4388719 
   92000    273.58236   -951.91542   -2126.7848   -11343.179    28292.658   -35197.862  0.033201977    1.6428633    4.4512572 
   94000    316.62035   -951.97044   -9099.4783   -5444.7095     26131.47   -36196.795    0.0330354    1.6437564    4.4464567 
   96000    290.76946   -951.90813   -6573.7261   -6270.5777    26754.057   -37391.127  0.033050997    1.6445777    4.4445625 
   98000    322.31962   -951.54719   -1510.6937    49.704034    19443.688   -40877.057  0.032938188    1.6417425    4.4464112 
  100000    263.30706   -952.10371   -3603.6567   -638.21503    23621.967    -34578.01  0.033324997    1.6435006    4.4507129 
  102000     337.9608   -951.99924   -753.62851   -2947.1229     26960.02   -34090.394   0.03328088    1.6424727    4.4406801 
  104000    280.23918   -952.34781   -5552.3975   -3870.2539    22926.164   -31059.508  0.033235581    1.6419887    4.4421931 
  106000    277.50426   -952.44903   -5889.5939   -2277.0342    29240.864    -43007.47  0.033027409    1.6406783    4.4430051 
  108000    283.14932   -952.05193   -3269.3898   -4377.2556    23490.936   -31462.618  0.033194927    1.6432542    4.4451152 
  110000    265.19022   -951.89261   -9183.0036    -11134.52    25225.795   -37523.172  0.032847613    1.6406305    4.4390313 
  112000    342.48133      -951.88   -7149.0805   -5836.0197    20612.741   -41640.895  0.033024077    1.6408764    4.4419383 
  114000    325.59681   -952.34853   -9488.7491   -3444.1587    26392.382   -34846.929  0.032827132    1.6409145    4.4414078 
  116000     350.2743   -952.07422    5457.6556     1842.757    24537.845   -32760.312  0.032968715    1.6431951    4.4422808 
  118000    303.60629   -951.97976   -11788.246   -6832.9416    24548.652   -36341.793  0.033030583    1.6426887    4.4396982 
  120000    314.11663   -952.05671   -1176.5103   -8126.4251     26266.37   -33986.259  0.032888461    1.6414193    4.4406884 
  122000    299.91925   -952.43575   -1734.8972    2136.8756    19914.941   -37818.485  0.032810917    1.6418287    4.4386367 
  124000    304.70512   -952.12518   -1933.7844   -1044.6788    14584.229   -48464.457  0.033019523    1.6436774    4.4408755 
  126000    322.02402   -952.19659   -2177.2971   -8165.1718    24379.919   -38701.855  0.032852321    1.6410469    4.4427212 
  128000    299.11638   -951.63833     4257.948   -9019.1792    17571.071   -32091.063  0.032753785    1.6408754    4.4407881 
  130000     315.0856    -953.0217   -3605.3439   -5308.2372    27606.614   -41314.475  0.032815019    1.6408135    4.4360078 
  132000    268.22289   -952.05573   -8495.4569     -586.277    19836.962   -40448.744  0.032830591    1.6415983    4.4426078 
  134000    354.68585   -951.94602   -4774.3184    3619.9832    21870.479   -32382.176  0.032582683    1.6365128    4.4427223 
  136000    297.48565   -950.92694    765.80756   -6207.0362    31878.323   -38225.718   0.03291094    1.6382201    4.4355193 
  138000    286.68932   -952.04794   -10039.994    231.56799    26175.155   -33434.839  0.033098559    1.6422217    4.4433556 
  140000    288.08113   -952.40083   -3396.8751    -3416.051    22108.058   -36457.995  0.033015587    1.6406476    4.4494775 
  142000    321.82178   -952.14893    2973.7818   -7638.1754    20555.117   -33865.946  0.033112594    1.6393989    4.4446038 
  144000    292.03129   -951.94406   -2675.1076   -988.70869    18322.778    -36130.09  0.033016119    1.6399921    4.4435106 
  146000    347.33396   -952.15823   -8689.4134   -5723.6084    32186.493   -41544.884  0.033173668    1.6399321    4.4499761 
  148000     282.2509   -951.71172   -3140.3596    -3448.137    17315.718   -31994.493  0.033319491    1.6446007    4.4552047 
  150000     304.3628   -952.52712   -8690.2117   -2694.1736    23196.654   -29201.823  0.033034783    1.6410979    4.4469235 
  152000    313.68583   -952.27606   -4073.1351   -5239.7964    27272.276   -41089.442  0.033101997    1.6408969     4.443621 
  154000    319.65259   -952.04754   -3881.2252   -7127.2909    22430.958   -37506.457  0.033302057    1.6427332    4.4535141 
  156000    314.09217   -952.24329    1759.8244   -5049.8463     18252.33   -37530.276   0.03345805      1.64279    4.4528209 
  158000    325.05822   -952.08168   -13610.572   -7608.5681    20101.652    -34605.68  0.033540789    1.6428021    4.4482969 
  160000     326.8259   -952.58441   -4131.2271   -2781.9038    21360.295   -41594.593  0.033471784    1.6420305    4.4516006 
  162000    292.92411   -952.35788   -5092.4089    -2418.407    20247.491   -40137.146  0.033507646    1.6426146    4.4533315 
  164000    317.32682   -952.16085   -476.48492   -432.05558    21062.987   -37277.456  0.033694597     1.644978    4.4519395 
  166000    274.47375   -952.28988   -8587.6742   -3477.0314    20761.339   -37049.106  0.033608111    1.6460733     4.452021 
  168000    330.94882   -952.17041    -4789.094     3931.425    23918.423   -34163.198  0.033465739    1.6455469    4.4519532 
  170000    272.92976   -951.80138    845.61339   -4679.0006    26590.553   -41011.737  0.033588811    1.6445814    4.4517023 
  172000    344.79108    -951.8969   -2524.8898   -3158.4786    25402.575   -40952.211  0.033957644    1.6450524    4.4475832 
  174000    310.60226   -951.67475   -8799.7696   -294.12561    20774.231   -47532.172   0.03380481    1.6445248    4.4495063 
  176000    325.05219   -952.10261   -3948.6285   -7281.1364    20141.448   -37752.818  0.033713064    1.6440536    4.4509784 
  178000     314.5781   -952.08031    3238.2052   -371.32935     19648.83   -32723.731  0.033773995    1.6448711    4.4469729 
  180000    286.53238   -952.29824   -10752.394   -3511.7949    19033.581   -37123.993  0.033722698    1.6434299    4.4499926 
  182000    308.33857   -952.13472   -5837.3056   -10068.543    26788.779   -39760.338  0.033869868    1.6439203    4.4535012 
  184000    284.55338   -952.36765    -8087.762   -2163.9571    23275.401   -37183.207  0.034042737    1.6449433    4.4516761 
  186000    312.83252   -952.48353   -11715.315   -2287.4055    23710.665   -31980.121  0.033793704     1.642139    4.4506345 
  188000    266.03275   -952.23787   -361.79725   -8496.7008    19598.398   -44904.174  0.033990648    1.6425776    4.4535668 
  190000    267.63739   -951.48914   -2557.4738   -7257.1092    17995.458   -33653.558  0.034066045    1.6434195     4.454467 
  192000    224.20799   -951.45329   -600.23053     5520.389    20532.716    -34884.16  0.033875721    1.6411013    4.4499683 
  194000    301.86931   -952.30387   -4827.8616   -658.02828    19366.994   -37265.812  0.033978819    1.6423948    4.4510575 
  196000    278.17105    -951.9558    3799.2029   -235.41898    24788.508   -38952.991  0.033917596    1.6418636    4.4519257 
  198000    309.98663   -952.33757   -720.45037    1879.1687    20339.961   -34873.806  0.033971995    1.6417388     4.452768 
  200000    342.19722   -952.00935   -2547.5966   -5985.4927    17934.031   -37941.742  0.034048314    1.6409606    4.4485326 
  202000    295.59274   -951.85832   -6811.6593   -5545.3795     19259.02     -33810.6  0.034188331    1.6403818    4.4532762 
  204000    289.65669   -952.33934   -2509.7779   -3370.8737    25276.786   -32575.168  0.034150228    1.6417635    4.4562526 
  206000    297.09323   -952.27174    4438.9806   -1503.2052    24576.214   -33249.065  0.034202078    1.6411513    4.4534057 
  208000    348.64888   -952.33728   -1733.7723   -1935.5257    22814.961    -34825.24  0.034168409    1.6400993     4.453681 
  210000    254.58535   -952.26139   -7064.2383   -2789.6114    25255.493   -43663.296  0.034168885    1.6402085    4.4568022 
  212000    303.52386   -952.02291   -6800.5101   -2692.5531    22388.543   -37948.944  0.034361312    1.6417511    4.4568482 
  214000    279.63412   -951.91912    -5897.228    316.89465    23539.085    -30077.96  0.034329013    1.6432818    4.4573219 
  216000    298.77746   -952.30445   -6298.9979   -4671.1755    21867.474   -34767.531  0.034324885    1.6412358    4.4563285 
  218000    343.56737   -952.07515   -4232.1222    -2326.472      24684.6   -38456.958  0.034335737    1.6405718    4.4554065 
  220000    320.98788   -952.50787    1248.0109    -4522.551    18439.455   -35839.127  0.034358317    1.6416768    4.4551905 
  222000    303.31843   -952.18536   -4614.0006   -5769.2896     23383.47   -41383.818  0.034523592    1.6411649    4.4576924 
  224000    318.75834   -952.13201    3321.0126   -5753.0486    25960.547   -40695.959  0.034295643    1.6410143    4.4571672 
  226000    291.00814   -952.16424    -6336.312   -6310.4614    25178.721   -34186.038   0.03440053    1.6407423     4.455704 
  228000    275.04181   -951.62595   -2927.9547   -6746.0657    19846.011   -42106.344  0.034331583    1.6408584    4.4577049 
  230000     308.7021   -952.17763    182.05035   -7233.4197    21092.445   -37076.019  0.034316441    1.6404782    4.4578232 
  232000    267.27018   -951.98339   -5609.7506    1706.9641    23781.926   -42093.238  0.034432377     1.640264    4.4542943 
  234000    345.68674   -952.36474   -3590.4578   -1341.9681    20881.609   -39270.612  0.034271545    1.6405077    4.4538239 
  236000    259.79864   -951.69527   -597.76292   -4350.2204    23777.148   -33434.888  0.034286758    1.6396728    4.4548834 
  238000    354.53294   -952.20045   -8595.8015   -4748.5715    16829.075   -34546.908   0.03435846    1.6398921    4.4532047 
  240000    316.33972   -952.27072   -3335.6991   -4200.9946     25678.76   -43334.396  0.034286006    1.6394763    4.4522744 
  242000    228.21309   -951.56023     892.1663   -4823.3758    27144.747   -37576.551  0.034366187    1.6395017    4.4543388 
  244000     282.3079   -952.58979   -7371.0669   -1348.1765        24228    -41272.99  0.034253765    1.6391344      4.45535 
  246000    263.22526   -952.18732    1807.4899   -3828.1559    24684.132   -34580.436  0.034297431    1.6402215    4.4564074 
  248000    336.55667   -952.20638    -896.2524    -4958.329    19412.525   -33035.636  0.034251341    1.6392692    4.4523313 
  250000    301.95516   -952.14116    3256.1925   -373.34576    24059.812   -37581.695   0.03420786     1.639231    4.4549109 
  252000    328.31287   -952.16365    1758.8485    326.60079    19895.236   -42260.316  0.034104579    1.6385196    4.4533559 
  254000    307.17968   -952.10706   -4951.2209   -3642.4422    18044.627   -42966.743  0.034094246     1.640267    4.4533824 
  256000    283.63212   -952.20751   -7730.2954   -3262.4071    23507.914   -41020.337  0.034034743    1.6394662    4.4541216 
  258000    297.99639   -952.11042   -6478.7086   -8431.2994    16552.981   -34671.554  0.034063352    1.6397833    4.4566175 
  260000    267.95857   -952.35943   -6577.3158   -3912.1698    22836.754    -33365.74  0.033937692    1.6399572    4.4554715 
  262000    261.32805   -951.83174    1815.7286    3697.0327    16384.401   -41790.106  0.033849335    1.6402163    4.4573909 
  264000    311.97618   -951.76401   -8318.9868   -6569.9202    27029.501   -38999.702   0.03378779    1.6393505    4.4577658 
  266000    295.02633   -952.14694   -3218.7387   -5503.0516    24798.479   -38768.889  0.033851865    1.6400364     4.459069 
  268000    283.93184   -952.62538      -904.61    1250.0305    23624.496   -33735.792  0.033839332    1.6400864    4.4577689 
  270000      332.349   -951.89661    3575.3133   -1537.7413    16435.452   -35823.101  0.033903282    1.6407706     4.458388 
  272000    294.96557   -951.97104    3043.3617    1498.1389    18655.326   -40446.631  0.033764988    1.6394897    4.4584106 
  274000    295.17187   -952.15545   -7047.6411   -11841.535    28190.498   -35816.401  0.033696748    1.6392898    4.4579083 
  276000     283.9275   -951.89739   -252.59969   -9953.5956    22781.138   -38332.381  0.033766267    1.6395637    4.4566282 
  278000    286.73049   -952.40721   -2104.1808    2573.6788    25834.326   -37391.696  0.033835171    1.6398343    4.4581591 
  280000    303.24253   -952.46146    -8250.949   -2750.7131    25440.236   -38370.829  0.033792974    1.6393729       4.4567 
  282000    285.91613   -952.08703   -3091.1828   -9871.1522    20934.352   -38208.119  0.033725906    1.6392452    4.4557868 
  284000      298.682   -952.48736    -4087.693   -703.96468    20942.387   -34045.446  0.033788668    1.6389219    4.4565315 
  286000    302.95815   -952.31912    584.44875   -3229.6282     14699.97   -33454.159  0.033818573    1.6391347    4.4571968 
  288000    339.46882   -952.32317     1193.917   -8321.1274    21470.412   -33395.959  0.033840902    1.6394072    4.4578387 
  290000    221.99133   -952.37011   -8976.6409   -6795.0866    27401.461   -38316.008   0.03378074    1.6390589    4.4561462 
  292000    305.19895    -952.2667    -2496.358   -8410.9321      22725.1   -41722.729  0.033641258    1.6387166     4.458145 
  294000    352.20448   -952.30227   -11186.823   -664.48903    19433.747    -34780.09  0.033755718    1.6399484    4.4599036 
  296000     290.5354    -951.9891   -7562.4765   -1507.0362    24801.294   -34055.762  0.033774427    1.6405556    4.4574674 
  298000     313.1511    -952.3372   -5568.4176   -3915.3983    21547.169   -38366.611  0.033705671    1.6404834     4.457776 
  300000    302.08757   -951.84748   -3379.8704   -1002.8234    22501.577   -35762.311  0.033755562    1.6414797    4.4592966 
  302000    294.32796   -952.22856   -3724.7935    -9162.276    23142.721   -38379.089  0.033767336    1.6415475    4.4590597 
  304000    326.49894   -952.29761     -6592.86   -4086.6333    24837.889   -31984.084  0.033861968    1.6423266    4.4593261 
  306000    336.75773    -952.4513   -1190.1642    3582.6823    24201.329   -34252.733  0.033842081     1.642278    4.4611398 
  308000    289.65461   -952.49709   -6815.4423   -8692.5587    24135.375   -38544.787  0.033732526    1.6410831     4.460452 
  310000    279.15245   -951.71874   -6608.0064   -11335.477    24665.624   -35673.428  0.033818109      1.64169    4.4596226 
  312000    280.47987   -952.33597    1739.5532   -4968.0968    18074.107   -33271.962  0.033945148      1.64276    4.4609802 
  314000    257.48581   -951.77413   -4053.2317    1819.7302    23850.106   -33004.769  0.034007826    1.6420533    4.4616475 
  316000    296.42179   -952.33609    -4920.451   -6296.9768    22880.938   -34852.546   0.03392299    1.6418965    4.4601605 
  318000    299.87552   -952.08122   -3394.4137   -3243.0987     28627.92   -52441.705  0.033950534    1.6419881    4.4604436 
  320000    315.10594   -952.63682   -3461.5777    -4860.454    24590.846   -39099.769  0.033875186    1.6417318    4.4625182 
  322000    272.92688   -952.21163   -117.01439   -4068.8953    23215.721   -31115.346  0.033917923    1.6414746    4.4609217 
  324000    315.56732    -952.2373   -3537.7906    5380.4538    24247.564   -34365.757   0.03400856    1.6412883    4.4585943 
  326000     304.4461   -952.41502   -9450.0584   -3894.5362    20706.978   -36483.406  0.033901512    1.6413142    4.4603469 
  328000     264.7208   -952.42011   -1678.6352   -3629.9469    31833.796   -36076.453  0.033942499    1.6417465    4.4612731 
  330000    308.65871   -952.11229   -9455.9854   -3674.7735    23551.004   -34771.612   0.03402737    1.6416134    4.4614922 
  332000    280.70864   -951.77718   -2385.6226   -3825.1936    28655.818    -40793.79  0.033967522    1.6405935     4.458928 
  334000     316.7455   -952.54876   -7430.5866    1341.5713    28794.456   -36033.749  0.034123922      1.64108    4.4618377 
  336000    309.87962   -952.04715    -5455.766   -6239.9182    18458.895   -35661.931  0.034008641    1.6408045    4.4622326 
  338000    291.06042   -952.15085     471.5296    -4130.016    30100.344   -46029.982  0.033940104    1.6404629     4.460138 
  340000    304.03543   -952.04129    1631.7537    4002.3654     22951.97   -42499.368  0.033983888    1.6410913    4.4618111 
  342000    303.75241   -951.77184    2020.2826    -2999.547    22468.718   -33687.601  0.033925843    1.6406861    4.4624238 
  344000    309.53392   -951.85991   -4954.7599   -5870.8653    23533.018   -41482.363  0.033914113    1.6410286    4.4615043 
  346000     347.6845   -952.38319    -11521.85   -655.51595     20433.41   -37732.379  0.033920888    1.6407415    4.4620421 
  348000    309.48319   -952.12188   -765.27704   -1028.1008    26990.434   -34138.836  0.033920964    1.6400642    4.4616096 
  350000    269.00581   -952.07943   -5869.9403   -5231.3002    21577.317   -38428.898  0.033978669    1.6407458    4.4612879 
  352000    334.07496   -952.11699   -939.16106   -1456.1531    18826.535   -42774.986  0.033984256     1.640908     4.461307 
  354000    346.31021   -951.86506    2449.6057   -2570.0326     23162.88   -36391.298  0.034003482    1.6399665    4.4615017 
  356000    264.40369   -951.96939   -2209.3811   -6500.2574    22627.322   -34403.588  0.033938554    1.6404284    4.4602242 
  358000    312.48585   -951.84662   -1070.6058    674.71606    25853.323   -39635.154   0.03397433    1.6403518    4.4592793 
  360000    284.52737   -952.19341   -455.61277    555.27956    20094.898   -35718.448  0.033952192    1.6398554    4.4596437 
  362000    322.08846   -952.09046   -10717.492   -10064.398    20994.989   -38750.514  0.033945941    1.6397159    4.4578004 
  364000    276.66493   -952.16958   -4713.5005    -7294.216     24395.04     -38142.7  0.034039832    1.6396459    4.4566289 
  366000    368.15237   -951.74204   -1255.0559     4765.426    24282.661   -38843.379  0.034012922    1.6394032    4.4578397 
  368000    275.61899   -951.76123   -3121.8013   -1262.4731    15128.498    -34324.63  0.033963903    1.6394073    4.4584909 
  370000    324.37186   -952.43624   -5287.8245    -3482.443    19513.209    -37921.23  0.034048961    1.6388662    4.4566618 
  372000     345.4766   -951.76322   -7159.9177   -9748.0391    25377.965   -41482.463  0.034069163    1.6388462    4.4563815 
  374000    310.32086   -951.38208   -10385.803    1427.4618    26373.391   -38750.999  0.034118175    1.6387714    4.4578165 
  376000    248.73019    -952.0355    1272.0894   -4005.4488    21413.261   -29978.221  0.034026985    1.6384054    4.4582064 
  378000    338.50436   -951.81323   -1520.3184   -1906.8133    22013.301   -34989.496   0.03405361    1.6388784     4.456096 
  380000     292.3267   -952.26576   -9057.9127    838.69932    20903.075   -41476.837  0.034100353    1.6384447    4.4558817 
  382000    284.73915   -952.20794   -1873.4223   -10653.545    18479.805   -34884.267  0.033963241    1.6383839    4.4596318 
  384000    291.30474   -951.79269   -4655.0034   -3521.0933    22462.945   -28539.958  0.034004866    1.6382166    4.4568104 
  386000     311.2906   -952.19514   -185.42501   -197.20315    24199.392    -38919.36  0.033991349    1.6376787    4.4543758 
  388000    285.93619   -951.87748    -152.2026   -9516.5097    18045.294   -35122.012  0.033891875    1.6379633    4.4569622 
  390000    280.72421    -952.1383   -2427.4951   -6201.3064    25275.045   -30841.649  0.033996934    1.6379679    4.4580744 
  392000    335.98593   -952.42543   -8379.9391   -7490.6199    19198.376   -39210.174  0.033900374    1.6376747     4.457218 
  394000    285.21687   -951.38982   -8906.7439    2349.5056    18767.477    -34354.72  0.033948915    1.6381448    4.4575053 
  396000    297.97293   -952.11677    857.83521   -3057.7669    17471.709   -37204.298  0.033975622    1.6377756    4.4578778 
  398000    284.34103   -952.04918    4623.5252   -2981.3903    22298.286   -37090.631  0.033929303    1.6378884    4.4581538 
  400000    291.52936   -952.25079   -1422.3846    642.92582    19769.644   -35995.084  0.033916433    1.6379649    4.4570931 
  402000    299.66276   -952.19111   -1836.9143   -1242.3394    26176.074   -38582.784   0.03390498    1.6375576     4.457141 
  404000    365.88766   -952.42168   -4304.7058   -5288.9111    27323.215   -37131.336  0.033946129    1.6374262    4.4576223 
  406000    318.02159   -951.78254   -3642.1342   -5560.6114    22873.023    -41792.79  0.033944015    1.6385528    4.4573125 
  408000    302.26508   -951.97545    1708.6038   -5173.5814    25014.711   -40842.752   0.03387086    1.6371621    4.4559789 
  410000    348.67734   -952.13805   -8154.1106   -2007.4601    28527.988    -38313.21  0.033903812     1.637564    4.4577713 
  412000    291.66303    -951.5425   -4558.9827   -7874.2937    23086.294   -48505.657  0.033852135    1.6379763    4.4563149 
  414000    307.43658   -952.27332   -549.94629   -4546.9201    22105.482   -35730.413  0.033946955    1.6379738    4.4569648 
  416000    313.01397   -952.28447    -2137.694    2786.0906    23315.331   -36053.183  0.033881769    1.6380977    4.4580161 
  418000    286.14348   -952.38496     405.6546   -2283.6747    18483.386    -39526.74   0.03384701    1.6378973    4.4572055 
  420000    269.04396   -952.01849   -1014.8387   -3208.0935    18891.121   -35718.753  0.033865581      1.63763    4.4561258 
  422000    322.29052   -951.59366    2525.1846   -1294.3145    15539.207   -38356.754  0.033933641    1.6384478    4.4576229 
  424000    305.87432   -952.01742   -3336.6639    -7357.474    22991.655    -43555.57  0.033944195    1.6378479    4.4578621 
  426000    300.93051   -951.78001   -732.08811    5600.3614    23189.987   -36780.142  0.033860143    1.6380861    4.4570151 
  428000    282.10629   -951.76179   -4817.2531    991.74669    23909.175   -37158.946  0.033879221    1.6380326    4.4570618 
  430000    254.43903   -951.93106    2364.2632   -2506.5817     18676.97   -42702.188  0.033790057    1.6375359    4.4581034 
  432000     246.8875    -952.0787   -8925.4384   -10264.021    24501.304   -34300.136  0.033823509    1.6378925     4.457918 
  434000    250.00041    -951.7748   -5613.4884    -4917.847    19566.301    -31031.18  0.033861357    1.6382688    4.4586173 
  436000    272.01811   -951.95731   -4865.5641   -9807.5832     26889.95   -32706.121  0.033799212    1.6375359    4.4590675 
  438000    279.33517   -951.96322    -2285.945   -5372.4269    20237.179   -36547.037  0.033769718    1.6377394    4.4580147 
  440000    295.99888   -952.10446   -156.77603   -2220.3513    23789.135   -33341.215  0.033808463    1.6380608    4.4583079 
  442000     307.5231   -952.11959   -264.83317   -3584.4783    16523.546   -33774.018  0.033779168    1.6382364    4.4593942 
  444000    276.45802    -951.8611   -8473.7202    132.56301    20896.439   -38869.193  0.033829999     1.638068    4.4577014 
  446000    302.20573    -952.0462    3548.1638    4473.5153    23787.618   -31018.023  0.033804447    1.6380886    4.4582311 
  448000    268.07125   -952.10087   -1685.8786   -4687.5727    21232.381   -42790.572  0.033874431    1.6385805    4.4586757 
  450000    311.09661   -951.87226   -1285.5377    327.89376    24656.232   -37450.022  0.033872776    1.6388451    4.4604494 
  452000     310.7321   -951.92062    881.05739   -874.14345    23164.241   -31224.301   0.03383654    1.6395654    4.4607944 
  454000    340.77821   -952.19879   -5807.9249   -2577.9485    29383.849    -41479.08  0.033877692    1.6404707    4.4590525 
  456000    352.21027   -952.18367   -6636.3176   -1200.2566    18531.084   -41343.269   0.03384285    1.6404749    4.4611052 
  458000    292.87687   -952.03259    730.17814     562.1824    23670.286   -37837.786  0.033865093    1.6405489    4.4621635 
  460000    312.31692   -952.52274   -4407.5006   -912.23549    20305.033   -32268.031  0.033915561    1.6403146    4.4602666 
  462000    307.03977   -952.06602   -7310.0769   -1785.7454    25802.401   -42903.564  0.033912584      1.63945    4.4594429 
  464000    331.84344   -952.36799   -10082.863   -6171.1176    29877.793   -35809.398  0.033986052    1.6404474    4.4617555 
  466000    344.91123   -952.12324   -3672.7407   -192.15898    19120.065   -35732.812  0.033957757    1.6401462     4.460892 
  468000    266.27236   -952.03602   -392.44772      659.878    13859.395   -37738.531  0.033948928    1.6401449    4.4601189 
  470000     279.8015   -952.09968   -7033.5709   -5454.5324    21782.412   -36085.858  0.033986356    1.6400796    4.4603143 
  472000    316.82494   -952.16599   -6828.1571   -8427.4363    23518.966   -40890.788  0.033927358    1.6395716    4.4608386 
  474000    273.73091   -951.18496   -2788.4759   -1302.8894    21050.432   -43707.411   0.03394916    1.6395863     4.460549 
  476000     300.9774   -951.92763    5543.0787   -515.10191    18861.816   -39030.515  0.033953094    1.6401465    4.4609107 
  478000    276.59466   -952.32035   -5327.6889    -1429.076    22012.976   -35072.113  0.033939385     1.639034    4.4617926 
  480000    319.90071   -951.32518   -7028.9813   -7848.9811    21719.008   -33365.106  0.034022142    1.6392148     4.461836 
  482000     290.9401     -952.328   -4845.3536   -3614.1591    23703.484   -40873.865   0.03400099    1.6392418     4.461132 
  484000    301.49368   -951.89312   -3260.9275   -3773.0234    28029.668   -35853.392  0.034026301    1.6388568    4.4614116 
  486000    295.26256   -952.15771    4463.0886    2983.7661    23370.014   -43117.441  0.034046063    1.6389534    4.4613901 
  488000    271.57353   -951.92777   -5004.2653   -5846.4882    23063.261   -30952.466  0.034016406    1.6391282    4.4605392 
  490000    315.56428   -952.14836   -9382.8114   -7137.6813    25214.538   -36255.069  0.034029759    1.6386299    4.4598244 
  492000     283.6614   -951.99332   -7413.9371   -4760.8866    15971.228   -32625.083   0.03405544    1.6389156    4.4614673 
  494000    291.26031   -952.45595   -2627.5805   -10859.058    27633.842   -44563.113  0.034026524    1.6384898    4.4600648 
  496000    302.62983   -952.33875    -998.9356   -486.19957    23981.917   -40365.445  0.033985329    1.6384766    4.4594354 
  498000    329.91421   -952.18578   -3721.7868    3634.9364     22760.26   -35902.334  0.033985144    1.6385801     4.460176 
  500000    269.46764   -952.04411   -5914.7252   -6201.2035      20499.5   -33708.127   0.03400421    1.6383232    4.4604896 
  502000    300.22416   -952.60971   -5689.8146    -4242.818    19616.601    -44846.99  0.033987331      1.63873    4.4602757 
  504000    248.24524   -952.45122    2592.0386    2449.0477    25603.142   -40017.678   0.03400367    1.6384184    4.4599351 
  506000    262.76512   -951.93918    356.69133   -3267.1882     20170.29   -42744.038  0.033928179    1.6379018    4.4608444 
  508000    325.71698   -951.96189    84.602209    1894.7726    20595.247   -37882.582   0.03391802    1.6383006     4.460057 
  510000    279.36543   -952.30988    2574.3745    2735.8684    23244.181   -37379.492  0.033989967    1.6381919    4.4593052 
  512000    310.51924   -952.15787   -1944.5568    -5395.485    22158.732   -33080.768  0.033972067    1.6379642    4.4601246 
  514000    345.98968   -952.43165   -1394.8415   -7071.7752    23991.646   -38884.795  0.033959609     1.638182    4.4593475 
  516000    310.50767   -952.07017   -6458.9544    999.17671    21535.291   -44026.162  0.033974167    1.6382527    4.4589932 
  518000    322.67604   -951.96387   -2937.1738   -1879.2797    16931.513   -38449.416   0.03391195    1.6376761    4.4588899 
[...]
 7710000    248.45768   -952.47309   -7264.1784   -7402.9646    19379.961   -42912.208  0.054600879    1.5793848    4.4634369 
 7712000    278.35828    -952.9111   -1868.6001   -94.978476    21443.752   -36054.891  0.054605955    1.5794074    4.4634391 
 7714000    308.68429   -952.59436    890.94962   -1907.1249    20805.464   -37914.264  0.054601141    1.5793743    4.4634341 
 7716000    321.48129   -952.45173   -8172.7974   -7053.3272    22082.913   -40743.171  0.054604378    1.5793925    4.4634633 
 7718000    270.78484   -952.31938   -3373.5321   -1936.4212    13312.225   -38384.928   0.05460627    1.5794087    4.4634948 
 7720000     294.9354   -953.28507   -4966.7329   -10235.147    26470.682   -38722.864  0.054597944    1.5793423    4.4634479 
 7722000    302.74949   -952.96959   -6035.8237   -3687.2714    26284.173   -35631.951   0.05460563    1.5793744    4.4634476 
 7724000    354.37593   -952.85421   -7918.8716   -990.90622    19833.283   -38357.706  0.054606946     1.579404    4.4634397 
 7726000    296.91167   -952.32538   -4865.3294   -10746.516    24703.227   -35193.707  0.054604907    1.5793745    4.4635019 
 7728000    254.95729   -953.35843   -2583.9022   -5027.4208    20489.274    -31139.55  0.054610453    1.5794211    4.4634705 
 7730000    311.74608   -953.40904   -4155.0826   -3945.9378    20027.852   -37467.856  0.054606404    1.5793669    4.4633985 
 7732000    311.79101   -952.10555   -5035.0074    -241.4906    24105.285   -40780.018  0.054611333    1.5793715     4.463469 
 7734000    318.73412   -952.55238   -4141.0579    390.80962     10858.09   -35870.908  0.054613027    1.5793972    4.4635298 
 7736000    270.21975   -952.94646     331.6486   -7131.6505    24758.524   -36641.529  0.054610047    1.5793532    4.4634113 
 7738000    246.47237    -952.7253   -6867.4759   -6795.7369    26444.784   -38244.082  0.054612734    1.5793992    4.4634597 
 7740000      333.604   -952.96171   -6591.3035    -4510.359    21228.534     -38158.4  0.054612386    1.5793812    4.4635355 
 7742000    319.61518   -952.67112   -1568.5979   -2645.0687    24641.733       -35097  0.054614503    1.5793496    4.4634728 
 7744000    339.30072   -952.27381   -9967.2078    314.78787    21633.487   -35551.993  0.054614448    1.5793801     4.463431 
 7746000    350.28609   -952.61286   -6465.2912   -4356.5188    20378.908   -41467.209  0.054612618    1.5793467     4.463497 
 7748000    315.68648   -952.88592    4576.9917    -1524.553    22084.083   -36855.448  0.054616335     1.579366    4.4635212 
 7750000    310.20116   -952.96488   -565.48946   -2338.9819    22464.619   -37879.901  0.054612345    1.5793622    4.4634847 
 7752000    257.35924   -952.14872    1659.9232    6459.0475    22163.397    -41903.71  0.054616379    1.5793369    4.4634491 
 7754000    251.56809   -952.94566   -1346.4342   -2470.1821    26689.478   -35547.069  0.054619928    1.5793394    4.4635602 
 7756000    323.35273    -952.8718   -4710.6769   -5840.4998     23643.03   -36505.219  0.054614358    1.5793271    4.4635292 
 7758000    243.99563    -952.1913   -10300.773    -5213.978    25131.484   -34949.383  0.054624182    1.5793459    4.4634191 
 7760000    301.24171   -952.54115   -4041.5193   -4911.3926     26832.86    -36462.46  0.054622162    1.5793269    4.4635387 
 7762000    311.66195   -952.41174   -6214.6114   -6871.8429    20131.463   -40874.502  0.054618855    1.5793431     4.463564 
 7764000    265.29238   -952.27761   -2490.7373   -1003.0457    20276.495   -37660.316  0.054626333    1.5793586    4.4634174 
 7766000    321.06086   -952.56112   -2563.1073   -742.30994    18722.502   -40016.503  0.054623901    1.5793283    4.4635393 
 7768000    341.65992   -952.63645    1953.5907   -5917.0995    22510.042   -42124.114  0.054617212    1.5793148    4.4635562 
 7770000    266.03777   -952.95951   -6650.5585   -3290.8571    23753.295    -41470.66  0.054623307    1.5793089     4.463468 
 7772000    299.08187   -952.28329   -2839.6922   -1796.1118    21295.809   -39919.494  0.054628207    1.5793468    4.4634734 
 7774000    279.85238   -952.55471   -7708.7238   -494.52771    21288.462   -33052.487  0.054626513    1.5793305    4.4635652 
 7776000    300.02339     -952.578   -4518.4122    -12960.08    23558.572    -31006.26  0.054628352    1.5793013    4.4634943 
 7778000    304.22671   -953.04833   -8906.1737   -9887.5021    25445.045   -41719.838  0.054629177    1.5793554     4.463436 
 7780000    267.14591   -952.31201   -3761.1418    2270.1686    26195.695   -39008.408  0.054629181    1.5793186    4.4635187 
 7782000    248.82199   -953.23449   -2957.2997   -3045.8346    23539.386    -36869.66   0.05462992    1.5793011    4.4634915 
 7784000    312.43799   -952.61941   -2694.4969   -3053.7481    17435.854   -36850.864  0.054631692    1.5793457    4.4634499 
 7786000     272.5182   -952.65023   -6326.0276   -1287.6756    14911.364   -38751.701  0.054630428     1.579315    4.4634617 
 7788000    276.31078   -952.51209   -15648.862   -5637.2798    22842.646   -42169.983  0.054633847    1.5793351    4.4634789 
 7790000    285.23139      -953.18   -5902.8627    -2219.386    23657.956   -32876.529  0.054636254     1.579327    4.4634754 
 7792000    314.85589   -952.70644    2606.6754   -2168.7611    25886.125   -37576.875   0.05463019    1.5793123    4.4634752 
 7794000    302.34075   -952.62303   -3297.9104   -6178.2355    27261.053   -36126.424  0.054633997     1.579317      4.46347 
 7796000    301.91264   -952.82912   -900.29548   -9388.8455    23331.408   -38198.312  0.054632177    1.5793321    4.4634998 
 7798000    305.50233   -952.95932   -6657.6804   -5304.6796    29668.389   -32986.332  0.054633053    1.5793061    4.4634805 
 7800000    325.98176   -952.64246   -3306.6218   -4219.6159    24117.966   -32546.792  0.054635925    1.5793183    4.4634349 
 7802000    289.62619    -952.7518   -6349.2348   -1482.7478    18786.429   -34761.349  0.054633314    1.5793317    4.4634884 
 7804000    282.03153   -952.75182   -4248.7524   -3302.9026     26331.14   -33447.484  0.054639811     1.579321    4.4634929 
 7806000    331.15633   -952.18431   -7047.0739   -11837.504    19920.571   -40596.407  0.054635253    1.5793114    4.4634377 
 7808000    266.72188   -952.14197   -9585.4513    -8758.331    25644.425   -33904.262  0.054639258    1.5793329    4.4634617 
 7810000    298.14699   -952.40382   -898.88348    1969.1829    23197.086   -31812.709  0.054642693    1.5793109     4.463505 
 7812000     331.8846   -952.88315     -4450.69   -5981.1044     25148.82   -34221.395  0.054638158     1.579295    4.4634746 
 7814000    363.18464   -952.45131   -1535.0663   -729.99378    19271.568   -37381.216  0.054645123    1.5793093    4.4634337 
 7816000    319.32108   -952.55447   -8441.8542   -5364.2677      17041.3   -40489.166  0.054642841    1.5792979    4.4634669 
 7818000    275.20544   -952.69002    -12275.33   -230.29743    31354.096   -33816.372  0.054646418    1.5793314    4.4635169 
 7820000    289.05058   -952.74923   -2873.4571   -5168.5772    24048.096   -30151.636  0.054644561    1.5793128    4.4634528 
 7822000    309.43274   -952.95866   -3855.3223   -8526.1853    20399.247   -36056.196  0.054642416    1.5792599    4.4634153 
 7824000    277.92136   -952.20104   -7754.5624    -3492.231    24828.611   -35050.305  0.054645378     1.579318    4.4635182 
 7826000    268.20704   -952.95363   -3662.2242   -1521.1348    17517.448   -31789.266   0.05464367    1.5793091    4.4634613 
 7828000    276.54285   -952.71084   -5683.3299   -5267.4818    27990.211   -39648.546  0.054645326    1.5792921    4.4634119 
 7830000    338.18704   -952.83965   -6311.7456   -7418.5007    24415.768   -37018.831  0.054644461    1.5793317    4.4634496 
 7832000    289.19664   -952.81231   -8864.9204   -6594.8157    21933.451   -38836.265  0.054645957    1.5792835     4.463394 
 7834000    308.21215   -952.85824   -8253.3865    -2664.612    27709.092   -39206.045  0.054646504    1.5793083    4.4634345 
 7836000    283.86877   -951.95865   -9551.6449   -2871.1986    22466.207   -35191.803  0.054644869    1.5793221    4.4634092 
 7838000    328.43061   -951.82861   -5489.8162   -4600.1215    22648.908   -37364.912  0.054646283    1.5792892    4.4633899 
 7840000    269.91446   -952.88257   -9793.4292   -3714.7185    21309.023   -39595.496  0.054647396    1.5793106    4.4634305 
 7842000    311.60145   -952.64255    -6589.268    2126.9017    27176.604   -39197.861  0.054647075    1.5792892    4.4634138 
 7844000    319.61969   -953.03281   -3545.2642   -8722.7705    23875.259   -37676.106  0.054650827    1.5792883    4.4633992 
 7846000    246.26623   -953.13505   -5359.5094   -6530.7393    20965.393   -36392.234  0.054650363    1.5792973    4.4633471 
 7848000    306.15607   -953.18184   -4908.1456   -570.65132    19207.823   -32177.905  0.054649642     1.579296    4.4634182 
 7850000    282.68658   -952.33498   -10385.353   -9928.4816    28935.031   -37494.751  0.054657422    1.5793115    4.4633887 
 7852000    333.54698   -952.05657   -10948.087   -5019.9287    19235.723   -33053.541    0.0546532    1.5792748    4.4633399 
 7854000    312.93859   -952.82296    -9310.593   -6103.9749    25705.854    -39480.67  0.054654196    1.5792754    4.4633907 
 7856000    321.61737   -952.65377   -215.29746   -1390.7621    20237.773   -35269.286  0.054657857    1.5793105    4.4633923 
 7858000    285.45755   -952.67561   -2288.0532   -5600.9596    25761.077    -35398.68  0.054655353    1.5792773    4.4633833 
 7860000    292.70943   -952.31862   -7169.6087   -9111.1887    22378.753   -33258.784  0.054658337    1.5792928    4.4633606 
 7862000    334.29044   -952.78806   -4634.7231   -3598.3543     25766.66   -28817.227  0.054662613    1.5792804    4.4633615 
 7864000    344.01606   -952.11621   -4013.3375   -5297.8295    23094.688   -45691.598  0.054667116    1.5792673    4.4633687 
 7866000    299.17252   -952.91536   -5667.3311   -5799.5351    17499.457   -42726.178  0.054671217    1.5793226    4.4634148 
 7868000    307.38216   -952.95057   -3592.5971   -2088.0593    23796.934   -37596.283   0.05467003    1.5792532    4.4633712 
 7870000    284.93689   -952.52423   -4217.3241    514.42069    21023.448   -42041.523  0.054669691     1.579256     4.463389 
 7872000    278.65013   -952.17273   -3442.6233   -4884.9472    22921.416   -37506.595  0.054674749    1.5792617    4.4634235 
 7874000    323.18273   -952.80128   -1270.2723   -4204.3429    22667.907     -36905.6  0.054678567    1.5792598    4.4634055 
 7876000    296.78299   -952.57671   -144.97625     928.0969    21498.403   -34775.011  0.054681793    1.5792638    4.4633739 
 7878000    285.09694   -952.70491   -9450.5427   -5006.6087    23665.093   -32305.146  0.054680993    1.5792378    4.4633844 
 7880000    292.01821   -952.70507   -8619.6931   -3241.2618    21255.989    -34249.97  0.054682551    1.5792453    4.4633228 
 7882000    263.83429   -952.96104    1839.5175   -2153.6607    16708.859   -36693.245  0.054684968    1.5792543    4.4633236 
 7884000    302.03529   -952.92722   -556.29781   -7900.6301     22243.43   -42027.213  0.054684825    1.5792329    4.4633417 
 7886000    271.49463   -952.59659   -380.03063    4141.3114    17789.332   -31510.678  0.054687114    1.5792451    4.4633592 
 7888000    269.18978   -952.73731   -3720.1111    439.20847    28677.359   -36302.208  0.054683309    1.5792267     4.463322 
 7890000     300.8184       -952.7   -8186.3934    492.50601    22106.198    -36615.79  0.054688025    1.5792283    4.4633094 
 7892000    302.55441    -952.6811   -1171.6168    1126.6547    22897.187   -37354.919  0.054686618     1.579229    4.4633157 
 7894000    270.75404   -952.37925   -9611.5624   -6111.1595    28666.565   -39325.488  0.054689411    1.5792092    4.4632885 
 7896000    262.47627   -952.72148   -7475.1327   -2248.7951    22541.223   -40448.748  0.054693059    1.5792129    4.4632382 
 7898000    321.27632   -952.72383   -435.80531   -3554.3599    24462.956   -30665.059  0.054686862    1.5791942      4.46331 
 7900000    288.13931   -952.93463   -6927.9503   -5892.1131    28158.122   -35420.469   0.05469375    1.5792051    4.4632709 
 7902000    254.94688   -952.95978    -4956.711   -694.32406    11318.593   -30879.954  0.054693538    1.5792151    4.4632562 
 7904000    337.22194   -953.08646    -9188.779   -7106.6936    23255.147   -35959.335  0.054691851    1.5791748    4.4632323 
 7906000    285.67239    -952.3956   -7284.4315   -8191.8337    22278.595   -33050.586  0.054696683    1.5791995    4.4632711 
 7908000    325.89884   -952.75264      999.388    -2121.549    25526.606   -35079.506  0.054696742     1.579179    4.4632821 
 7910000    356.10958   -953.26631   -3532.8559   -5292.7323    23098.065   -33369.654  0.054696027    1.5791952    4.4632215 
 7912000    295.89546   -952.87816   -9448.8147   -6069.6077    12511.985   -40297.321  0.054698239    1.5791982    4.4632049 
 7914000    289.76956   -952.44968   -369.53555    333.23693     21838.43   -37485.893   0.05469554    1.5791557    4.4632385 
 7916000     246.6715   -952.79852    2514.7503   -1237.8133    21970.937    -34285.58  0.054700103    1.5792065    4.4632471 
 7918000    302.43745   -952.20336   -7787.5902   -3489.2934    21911.311   -38864.405   0.05469963    1.5791798    4.4632056 
 7920000    281.39331   -952.67779    30.898584   -12061.572    22688.881   -38789.682  0.054699288    1.5791765    4.4632592 
 7922000    315.55382   -952.14176    2667.7496   -4353.0113    27257.387   -37125.126  0.054701403    1.5791994    4.4632949 
 7924000     322.7317   -952.41551   -4608.1672   -6168.1163    19548.934   -40748.765   0.05470369    1.5791783    4.4632292 
 7926000    305.06323   -952.37626   -6024.9146   -5076.7134    25272.808   -38898.426  0.054705528    1.5791907    4.4632321 
 7928000    306.78014   -952.52062   -4510.6078   -2374.9519    21540.994   -37008.191  0.054702545    1.5791722    4.4633069 
 7930000    324.88071   -952.33927   -35.507752   -7883.7108    23446.508   -37841.269   0.05470882    1.5791788    4.4632206 
 7932000    311.11898   -952.78839    -1555.401    3431.3747    19600.621   -36867.363  0.054709326    1.5792049    4.4632282 
 7934000    256.63175   -952.93646   -6236.1187   -6734.1345    22942.539   -31710.344  0.054703373    1.5791751    4.4632472 
 7936000    257.33808   -952.99664   -2817.2142    -275.8489    22552.471   -40924.444  0.054708586    1.5791806    4.4632137 
 7938000    282.53367   -952.63163     982.3939    443.62808    23087.083   -38015.687  0.054707929    1.5791644    4.4632143 
 7940000    309.55889   -952.89064   -2489.7681   -4022.0346     27568.51   -41106.818  0.054706958    1.5791622    4.4632342 
 7942000    312.32812   -952.75611   -4785.3165   -908.04102    23241.716    -37541.41  0.054710614    1.5791631    4.4631809 
 7944000    348.97006   -952.34645   -4209.4647   -1638.1248    21402.427   -34268.661  0.054706739    1.5791469    4.4631744 
 7946000    309.39447   -952.78053    -5972.763   -4144.6907    21482.673   -39907.652  0.054710151     1.579172    4.4632043 
 7948000    296.24404    -952.5815    -2127.899    -7377.395    19500.303   -33407.071  0.054715713    1.5791537    4.4631447 
 7950000    340.32589   -952.70383   -4407.8081   -3528.3523    19446.154   -34506.623  0.054710131    1.5791232    4.4631977 
 7952000    326.71657   -952.72188   -6019.8162    454.95942    25304.858   -34048.451  0.054714158    1.5791534    4.4632293 
 7954000    331.70445   -952.91021   -6869.2959   -6615.5153    23108.721   -36306.199  0.054717248    1.5791393    4.4631344 
 7956000    285.37568   -952.50552   -10204.597   -2502.7838    27540.029   -39085.967  0.054715864    1.5791736    4.4631852 
 7958000    338.77429   -952.26243   -5900.6325   -9036.9229    22668.702   -38177.619  0.054718105    1.5791484    4.4632081 
 7960000    308.55244   -953.06944   -4594.9453   -6141.1935    23148.283   -29421.621  0.054717315    1.5791159    4.4631261 
 7962000     315.6123   -952.47265   -9583.9335   -3653.1447    27132.947   -30290.334  0.054720322    1.5791688    4.4631605 
 7964000    294.69991   -952.19886   -9925.3966   -6628.5276     20285.19   -30025.576  0.054718043    1.5791373    4.4632132 
 7966000    264.79332   -952.34186   -2258.2971   -6657.5874    22483.403   -35379.772  0.054716188    1.5791201    4.4631522 
 7968000    277.62638    -952.3464   -3492.3461    225.29617    19918.608   -40264.073  0.054717698    1.5791446    4.4630683 
 7970000    334.02197    -951.9992   -7591.2418   -9036.3592    18220.771   -41603.146  0.054716403    1.5791115    4.4631647 
 7972000    346.62671   -952.35157   -10544.787   -4433.9165     16759.48   -33113.132   0.05472642    1.5791351    4.4631787 
 7974000    260.93591   -952.90277   -106.29257   -3067.1482    16720.885   -37336.999  0.054724368    1.5791437    4.4631324 
 7976000    292.57766   -951.89953   -3364.7175   -1790.5213    22911.644   -38819.389  0.054723205    1.5791108    4.4630988 
 7978000    286.37758   -952.55332   -6414.7469    -12156.15    20299.234   -38228.013  0.054728737    1.5791169      4.46319 
 7980000    289.96132   -952.29839   -2857.7618   -1921.5311    20025.633   -40352.315  0.054725921    1.5790991    4.4631341 
 7982000    311.94385   -952.78166   -1762.9555   -1287.4914    18497.629   -42210.888  0.054728864    1.5791251    4.4631132 
 7984000    289.17687   -952.48495   -3823.1153    1374.6961    21085.354   -37962.284  0.054728138    1.5790981    4.4631684 
 7986000     324.3765   -952.96347   -4929.9225   -6640.4914    25006.788   -34943.823  0.054726706    1.5791009    4.4631991 
 7988000    306.99977   -952.54254    247.29806   -3168.6957    23357.469   -37680.351   0.05473159    1.5790837    4.4631448 
 7990000    327.29619   -952.59564   -6138.5708   -7813.3048    23989.079     -37179.7  0.054732766    1.5790897    4.4631629 
 7992000    305.50889    -952.5001    4696.5474     3431.583    26169.658   -36388.454   0.05473726    1.5790624    4.4631885 
 7994000    303.67637   -952.82595   -2976.4479   -743.89022    27833.382   -38811.803  0.054738167    1.5790751    4.4631414 
 7996000    289.88085   -952.64439   -7805.2661   -10948.753    19194.937   -36775.554  0.054736052    1.5790966    4.4631337 
 7998000    331.64187   -953.00697   -3642.7655   -1719.0039    24516.535   -37355.371  0.054734999    1.5790412    4.4631765 
 8000000    318.63009   -953.28461   -8888.6079   -7916.1894    29452.593   -35123.648  0.054733598    1.5790284    4.4631779 
Loop time of 25570.2 on 1 procs for 8000000 steps with 80 atoms

Performance: 2.703 ns/day, 8.879 hours/ns, 312.864 timesteps/s
100.0% CPU use with 1 MPI tasks x no OpenMP threads

MPI task timing breakdown:
Section |  min time  |  avg time  |  max time  |%varavg| %total
---------------------------------------------------------------
Pair    | 22857      | 22857      | 22857      |   0.0 | 89.39
Bond    | 35.11      | 35.11      | 35.11      |   0.0 |  0.14
Kspace  | 1722       | 1722       | 1722       |   0.0 |  6.73
Neigh   | 11.199     | 11.199     | 11.199     |   0.0 |  0.04
Comm    | 835.33     | 835.33     | 835.33     |   0.0 |  3.27
Output  | 0.60728    | 0.60728    | 0.60728    |   0.0 |  0.00
Modify  | 61.803     | 61.803     | 61.803     |   0.0 |  0.24
Other   |            | 46.84      |            |       |  0.18

Nlocal:    80 ave 80 max 80 min
Histogram: 1 0 0 0 0 0 0 0 0 0
Nghost:    6803 ave 6803 max 6803 min
Histogram: 1 0 0 0 0 0 0 0 0 0
Neighs:    66986 ave 66986 max 66986 min
Histogram: 1 0 0 0 0 0 0 0 0 0

Total # of neighbors = 66986
Ave neighs/atom = 837.325
Ave special neighs/atom = 1.5
Neighbor list builds = 3211
Dangerous builds = 0
variable     ndens equal count(all)/vol
print        "average viscosity: $v [Pa.s] @ $T K, ${ndens} /A^3"
average viscosity: 2.03231329797944 [Pa.s] @ 298 K, 0.0122335266929676 /A^3
Total wall time: 7:53:27
