LAMMPS (16 Mar 2018)
############################################################################
# Interfacial Fracture
# Mark Tschopp, Nathan Rhodes 2011

# lmp_exe -var datfile Fe_110_sig3.txt -var nloop 100 < in.gb_fracture.txt

# Simulation deletes atoms outside of +/- deldist from GB and constrains and pulls
# atoms outside of +/- fixdist from GB to fracture the GB
############################################################################

#variable datfile index Fe_110_sig3.txt
variable strain equal 0.001
#variable nloop equal 100
variable repx equal 1
variable repz equal 1
variable strain2 equal "1+v_strain"
variable deldist equal 50
variable fixdist equal 45

######################################
# INITIALIZATION
units 		metal
dimension		3
boundary		p	p	p
atom_style		atomic
atom_modify map array

######################################
# SIMULATION CELL VARIABLES (in Angstroms)

read_data ${datfile}
read_data Fe_110_sig3.txt
  orthogonal box = (0 -123.994 0) to (6.99406 123.994 4.03802)
  1 by 1 by 1 MPI processor grid
  reading atoms ...
  600 atoms

#variable minlength equal 100
variable xlen equal lx
variable ylen equal ly
variable zlen equal lz

print "lx: ${xlen}"
lx: 6.99406
print "ly: ${ylen}"
ly: 247.988006
print "lz: ${zlen}"
lz: 4.03802

# Replicate simulation cell in each direction
replicate ${repx} 1 ${repz}
replicate 1 1 ${repz}
replicate 1 1 1
  orthogonal box = (0 -123.994 0) to (6.99406 123.994 4.03802)
  1 by 1 by 1 MPI processor grid
  600 atoms
  Time spent = 0.000446081 secs

######################################
# INTERATOMIC POTENTIAL
pair_style	eam/fs
pair_coeff	* * Fe-C_Hepburn_Ackland.eam.fs Fe C

# Compute stress information for Atomeye visualization
compute stress all stress/atom NULL
compute stress1 all reduce sum c_stress[1]
compute stress2 all reduce sum c_stress[2]
compute stress3 all reduce sum c_stress[3]
compute stress4 all reduce sum c_stress[4]
compute stress5 all reduce sum c_stress[5]
compute stress6 all reduce sum c_stress[6]
##########################################
# Minimize first
reset_timestep 0
thermo		10
thermo_style custom step lx ly lz press pxx pyy pzz pe c_stress1 c_stress2 c_stress3 c_stress4 c_stress5 c_stress6
min_style cg
fix 1 all box/relax x 0.0 z 0.0 couple none vmax 0.001
minimize 1.0e-25 1.0e-25 1000 10000
WARNING: Using 'neigh_modify every 1 delay 0 check yes' setting during minimization (/home/conda/feedstock_root/build_artifacts/lammps_1526417570236/work/src/min.cpp:168)
Neighbor list info ...
  update every 1 steps, delay 0 steps, check yes
  max neighbors/atom: 2000, page size: 100000
  master list distance cutoff = 7.3
  ghost atom cutoff = 7.3
  binsize = 3.65, bins = 2 68 2
  1 neighbor lists, perpetual/occasional/extra = 1 0 0
  (1) pair eam/fs, perpetual
      attributes: half, newton on
      pair build: half/bin/atomonly/newton
      stencil: half/bin/3d/newton
      bin: standard
Per MPI rank memory allocation (min/avg/max) = 5.213 | 5.213 | 5.213 Mbytes
Step Lx Ly Lz Press Pxx Pyy Pzz PotEng c_stress1 c_stress2 c_stress3 c_stress4 c_stress5 c_stress6 
       0      6.99406    247.98801      4.03802   -452.41875   -731.31618    104.20808   -730.14815   -2403.1762    5121930.5   -729843.75    5113749.9   -167.54308 -3.9423104e-09 3.604008e-09 
      10    6.9928085    247.98801    4.0372763    171.55994    38.496603    426.79345    49.389773   -2403.1774   -269521.36   -2988054.6   -345786.33   -133.47496 -2.3286658e-08 2.1075749e-08 
      20    6.9927043    247.98801    4.0374084    143.59944     43.51557    421.30425   -34.021506   -2403.1775   -304665.44   -2949676.4    238194.68   -47.451094 7.4611978e-08 1.1360556e-08 
      30     6.992866    247.98801    4.0374227    113.14395   -26.431503    433.46103   -67.597686   -2403.1775    185059.74   -3034870.4    473284.11    95.986594 -4.2356829e-08 2.6205746e-08 
      40     6.992879    247.98801    4.0373336    162.70249   -2.3157209    489.53562   0.88757505   -2403.1776    16213.156   -3427406.6    -6214.217    133.33923 -3.8342098e-08 -1.3824563e-08 
      50    6.9928741    247.98801    4.0373571    161.88347    -6.423557    507.36823   -15.294267   -2403.1776    44973.753     -3552277    107080.95    133.40787 -9.1337399e-09 -1.3325305e-11 
      60    6.9928449    247.98801    4.0373553    175.32371    7.7590745    526.26348   -8.0514165   -2403.1776   -54323.965   -3684552.7    56370.753    129.78485 3.1394385e-08 4.2930828e-08 
      70    6.9928563    247.98801    4.0373433    181.41845    7.2274262    537.06917 -0.041252761   -2403.1776   -50601.644   -3760202.1    288.82447     132.6971 -7.1671961e-08 3.7466547e-09 
      80    6.9928646    247.98801    4.0373326    186.43927    7.5563261    544.34693    7.4145547   -2403.1776   -52904.306   -3811150.6   -51911.718    142.09047 3.7360707e-08 2.0515076e-08 
      90    6.9928854    247.98801    4.0373313    182.60808  -0.78642082    543.38665    5.2240263   -2403.1776    5506.0034   -3804437.4    -36575.21    156.87646 -4.3557502e-08 -1.2989065e-08 
     100    6.9928866    247.98801    4.0373346    179.96829   -2.4409591    539.99572    2.3500931   -2403.1776    17090.013     -3780700   -16453.828    170.61057 -1.0752138e-08 1.0358935e-08 
     110    6.9928936    247.98801    4.0373371    175.39209   -6.6188252    533.93026   -1.1351571   -2403.1776    46340.799   -3738239.7    7947.6469    180.25842 1.7992927e-09 -4.1777465e-08 
     120    6.9928777    247.98801    4.0373465     173.5953   -2.6589561    529.15683   -5.7119892   -2403.1776    18616.318   -3704819.4    39991.713    186.71845 -1.551952e-08 6.8178352e-10 
     130    6.9928691    247.98801    4.0373435    175.72847    1.9990351    527.14742   -1.9610523   -2403.1776   -13995.944   -3690743.6    13730.013     190.6847 2.7728116e-09 -5.8230993e-08 
     140    6.9928655    247.98801     4.037341    176.70816    4.4612091    524.94841   0.71487374   -2403.1776    -31234.45   -3675343.2   -5005.0754    191.88109 -2.308344e-08 4.3136207e-08 
     150    6.9928917    247.98801    4.0373312    173.29707   -4.3149305    520.82422    3.3819287   -2403.1776    30210.344   -3646473.3   -23678.071    186.95911 1.5042356e-08 -2.0178803e-08 
     160    6.9928833    247.98801    4.0373281    175.32443  -0.64034101    520.39384    6.2197855   -2403.1776    4483.2434   -3643452.8   -43546.816    155.68068 -1.1004573e-08 1.8705053e-08 
     170    6.9928695    247.98801    4.0373331    176.54498    3.9460335    520.84871    4.8401992   -2403.1777   -27627.492   -3646634.9   -33887.843    95.434896 -9.5600098e-09 1.8341952e-08 
     180    6.9928383    247.98801    4.0373322    184.82193    18.174734    525.07654    11.214508   -2403.1777   -127246.75     -3676218   -78516.126    62.559014 1.2812064e-08 -2.165482e-08 
     190    6.9928735    247.98801    4.0373069    186.26545     10.03331    524.72323    24.039796   -2403.1777   -70246.118   -3673739.9    -168309.6    34.034855 -1.925698e-08 4.5897511e-08 
     200    6.9928371    247.98801    4.0373387    180.49017    15.910416    519.93698    5.6231089   -2403.1777   -111393.75   -3640239.7   -39369.125    11.904687 -4.6341769e-09 4.6084754e-09 
     210    6.9928719    247.98801    4.0373336    172.88188    1.8145701    513.70306    3.1280017   -2403.1777   -12704.414   -3596607.4   -21900.189   -10.301026 -1.0991688e-08 2.7818439e-08 
     220    6.9928817    247.98801    4.0373296    171.55787   -1.0618259    511.02666    4.7087791   -2403.1777    7434.2023   -3577870.5   -32967.755   -30.638943 -8.217865e-09 -2.0794157e-08 
     230     6.992823    247.98801    4.0373551    174.81316    17.307743    511.41286   -4.2811354   -2403.1777   -121177.11     -3580567    29973.615   -44.133072 -3.3402593e-08 -1.7336514e-08 
     240    6.9928729    247.98801    4.0373363    169.52095   0.81553958    506.59809    1.1492019   -2403.1777   -5709.8709   -3546866.1   -8045.9549   -54.563243 -7.2313397e-08 2.4231926e-08 
     250    6.9928884    247.98801    4.0373191    171.97381   -1.3989946    506.35679    10.963643   -2403.1777     9794.818   -3545169.3   -76760.048   -57.947378 8.495429e-09 -1.5163524e-08 
     260    6.9928533    247.98801    4.0373423    170.10499    6.7643054    504.40171  -0.85104139   -2403.1777   -47359.147   -3531483.8    5958.4233   -56.690625 5.2258456e-08 -3.1249708e-08 
     270    6.9928662    247.98801    4.0373368    169.17324    2.9334721    503.32408    1.2621672   -2403.1777   -20538.222   -3523940.7   -8836.8561   -53.292961 4.5644778e-08 -1.1471301e-08 
     280    6.9928756    247.98801    4.0373207    174.01557    3.8518569    506.11031    12.084558   -2403.1777    -26968.07   -3543438.6   -84607.815   -49.329604 1.5943556e-08 -1.4948119e-09 
     290     6.992872    247.98801    4.0373355    168.57653   0.90054329    503.46014    1.3689194   -2403.1777   -6305.0087     -3524895   -9584.2688   -42.967362 4.3306522e-08 1.2760138e-08 
     300    6.9928434    247.98801    4.0373418    173.18244    11.400804    506.77668    1.3698423   -2403.1777   -79820.687   -3548106.2   -9590.7061   -33.678908 4.9738869e-09 -1.0127425e-08 
     310    6.9928745    247.98801    4.0373312    170.34916   0.95019998    506.03245    4.0648383   -2403.1777   -6652.6673   -3542902.1    -28459.29   -21.435366 -2.3485349e-08 -8.0060153e-09 
     320    6.9928757    247.98801    4.0373345    169.60664 -0.093992271    507.11557    1.7983531   -2403.1777    658.07192   -3550488.9   -12590.883    3.2553939 6.1002746e-08 -2.5086055e-08 
     330    6.9928315    247.98801    4.0373531    173.77572    14.280878    511.14093   -4.0946375   -2403.1777   -99985.122   -3578665.7    28667.903    33.670884 3.7492866e-08 9.569492e-09 
     340    6.9928795    247.98801    4.0373325    171.53782  -0.43168897    511.65624    3.3889213   -2403.1777    3022.4018   -3582279.9   -23726.994    69.580729 1.8085632e-08 2.8993531e-08 
     350    6.9928753    247.98801    4.0373342    172.39175   0.69456193    513.82483    2.6558552   -2403.1777   -4862.8641   -3597462.2   -18594.545    109.66494 -3.5363499e-08 -1.2944442e-08 
     360    6.9928355    247.98801     4.037345    177.81311    14.714688    517.59517    1.1294704   -2403.1777   -103022.22   -3623848.8   -7907.7822    138.54421 -8.132556e-09 2.9432645e-08 
     370    6.9928767    247.98801    4.0373312    173.41434   0.74848832    515.03989    4.4546491   -2403.1777   -5240.4183   -3605967.4   -31188.496    159.71228 5.3202427e-08 6.8837632e-08 
     380    6.9928746    247.98801     4.037333    172.91222    1.3055562    513.79496    3.6361398   -2403.1777   -9140.6389   -3597251.7    -25457.84    183.16262 5.7554624e-08 2.9392736e-09 
     390    6.9928296    247.98801    4.0373426    179.28155    18.134878    515.59613    4.1136297   -2403.1777   -126967.88   -3609847.6   -28800.791    206.05271 1.390318e-08 -1.7378655e-08 
     400    6.9928746    247.98801    4.0373298      172.102    1.7636701    508.93491    5.6074342   -2403.1777   -12348.039     -3563222   -39259.506    227.16934 -6.2826346e-08 1.3332733e-08 
     410    6.9928764    247.98801    4.0373313    168.79853  -0.25769267    503.29304    3.3602556   -2403.1777    1804.1929   -3523723.7   -23526.279    239.21576 -3.3164695e-08 -1.1875677e-08 
     420    6.9928191    247.98801    4.0373536    172.00161     17.87279    502.07536   -3.9433259   -2403.1777   -125133.07   -3515188.9    27608.475    231.43824 -3.9580693e-08 7.9557038e-09 
     430    6.9928707    247.98801    4.0373345    166.06713     1.012821    495.52444    1.6641411   -2403.1777   -7091.0998     -3469333   -11651.211    201.04264 3.6118165e-08 -5.7748015e-08 
     440    6.9928899    247.98801    4.0373081    171.18651    0.5295323    494.59247    18.437538   -2403.1777   -3707.4193   -3462794.8    -129086.9    141.35798 -2.4032117e-08 -1.9200002e-08 
     450    6.9928468    247.98801    4.0373403     166.0383    9.3156399    487.84786   0.95141224   -2403.1777   -65221.794     -3415580   -6661.1434    72.018135 -4.1147901e-08 -2.1755163e-08 
     460    6.9928393    247.98801    4.0373381    165.91946    12.216422    482.66701    2.8749375   -2403.1778   -85530.965   -3379301.7    -20128.33   -22.602975 -9.8960063e-08 5.2891111e-08 
     470    6.9928712    247.98801    4.0373221    163.46606    2.5725896    478.74539    9.0802056   -2403.1778    -18011.51   -3351847.2   -63573.378   -71.362107 -7.1844443e-08 4.585617e-08 
     480    6.9928753    247.98801    4.0373266     159.6686  -0.70486031    474.91207    4.7985929   -2403.1778    4934.9574   -3325014.6   -33596.517   -101.96306 -2.9148866e-08 2.6184493e-08 
     490    6.9928608    247.98801    4.0373365    158.80931    2.7207934    473.86796  -0.16081883   -2403.1778   -19049.171   -3317705.7    1125.9456   -108.82504 3.1485923e-08 9.083985e-09 
     500    6.9928582    247.98801    4.0373373    158.77303    3.5014911    473.26752  -0.44992154   -2403.1778   -24515.088   -3313501.2    3150.0483   -109.06244 -5.0365358e-09 2.4697694e-08 
     510      6.99287    247.98801    4.0373312    158.06531  -0.10698979     472.4275    1.8754238   -2403.1778    749.07075   -3307620.6    -13130.46   -105.73284 2.3280716e-08 -1.7557714e-08 
     520    6.9928712    247.98801    4.0373238    160.64632    1.4803866    473.25453    7.2040404   -2403.1778   -10364.657   -3313405.3   -50437.775   -101.40962 -3.6191874e-11 -4.0936773e-08 
     530    6.9928653    247.98801     4.037334    157.65449    1.1360547    471.24307   0.58435767   -2403.1778   -7953.8931   -3299327.9   -4091.2805   -101.43149 9.5808405e-09 2.4901049e-08 
     540    6.9928503    247.98801    4.0373373    160.04748    6.8550637     472.4753   0.81206466   -2403.1778   -47994.496   -3307950.9   -5685.5247   -104.30445 3.6246125e-08 -4.7597191e-09 
     550     6.992868    247.98801    4.0373331    157.49676   0.41185859    471.10452   0.97390889   -2403.1778   -2883.5582   -3298358.5   -6818.6581    -107.8409 1.180252e-08 2.374285e-08 
     560    6.9928744    247.98801    4.0373275     158.4044  -0.80655864    471.97555    4.0442196   -2403.1778     5646.981   -3304455.4   -28314.905   -112.65751 -4.5741548e-08 3.2373678e-08 
     570    6.9928576    247.98801    4.0373373     158.5283    3.5927824    472.54821  -0.55610392   -2403.1778   -25154.246   -3308464.8    3893.4657   -116.39174 -6.8873139e-08 2.8919321e-08 
     580    6.9928632    247.98801    4.0373349    158.62111    1.9498263    473.52201   0.39149426   -2403.1778   -13651.376   -3315283.4   -2740.9801   -121.54283 -1.3724162e-07 8.1747453e-09 
     590    6.9928765    247.98801    4.0373206    161.92771   0.59396542    476.05102    9.1381573   -2403.1778   -4158.5405   -3332984.4   -63979.141   -125.11646 -2.4710178e-08 4.6987959e-08 
     600    6.9928675    247.98801    4.0373328    159.14425   0.95894296    474.98856    1.4852545   -2403.1778   -6713.8757   -3325551.5   -10398.756   -127.17278 -3.0440063e-08 3.2260543e-08 
     610    6.9928374    247.98801    4.0373379     164.3918    12.465968     478.0555    2.6539441   -2403.1778   -87278.085   -3347013.9   -18581.081   -124.50126 2.3757649e-08 -5.7841521e-09 
     620    6.9928675    247.98801    4.0373311    159.46496    1.0373393     475.0098     2.347747   -2403.1778   -7262.7513   -3325698.7   -16437.343   -114.86655 -6.2635761e-08 -4.939529e-08 
     630    6.9928751    247.98801    4.0373258    159.48557  -0.77799182    474.26583    4.9688725   -2403.1778    5446.9736   -3320489.2   -34788.691   -93.411594 -1.0797305e-08 -8.6014364e-08 
     640    6.9928458    247.98801    4.0373409    160.13511    7.7327912    473.92201   -1.2494652   -2403.1778   -54139.761   -3318080.6     8747.908   -73.710037 -7.0098486e-09 -7.7650403e-08 
     650    6.9928663    247.98801     4.037334    157.78572     1.019098    471.68816   0.64989458   -2403.1778   -7135.0419   -3302444.7   -4550.1268   -47.852731 -3.3405731e-08 -1.1058912e-07 
     660    6.9928771    247.98801    4.0373204    160.60799   0.29458518    472.51131    9.0180739   -2403.1778   -2062.4844   -3308201.9   -63138.401   -23.939835 -5.9297501e-08 -6.1572508e-08 
     670    6.9928587    247.98801    4.0373356    158.25255    3.6385336    470.67059   0.44853273   -2403.1778   -25474.559   -3295318.1   -3140.3237   -5.6582341 -6.9441813e-10 -2.0453937e-08 
     680    6.9928616    247.98801    4.0373343    157.73335    2.5431125    469.90684    0.7500889   -2403.1778    -17805.16   -3289971.1   -5251.6171    16.866735 -8.953319e-08 -5.459318e-08 
     690    6.9928724    247.98801    4.0373213    160.52189    1.6406899    471.23703    8.6879366   -2403.1778   -11486.986   -3299278.7   -60826.978    36.348188 -4.7725167e-08 6.7703093e-09 
     700    6.9928644    247.98801    4.0373339    157.06546    1.4626437    469.15579   0.57795365   -2403.1778   -10240.449   -3284713.7   -4046.4433    58.669547 -8.550967e-08 -1.8507686e-08 
     710    6.9928619    247.98801    4.0373356    157.02253    2.1117583    469.17951  -0.22369654   -2403.1778   -14785.115   -3284880.1     1566.173    85.649347 -2.8525866e-08 -2.9078058e-08 
     720    6.9928793    247.98801    4.0373216    158.86837   -1.3100298    470.47595    7.4391977   -2403.1778    9171.9407   -3293953.6   -52084.218    111.20738 -4.8657291e-08 8.2252624e-09 
     730    6.9928636    247.98801    4.0373346     157.3299    1.5850658    470.23463   0.17001569   -2403.1778   -11097.567   -3292267.3   -1190.3358    143.43862 4.5298614e-08 -1.9146517e-08 
     740     6.992861    247.98801    4.0373345    158.57813    2.7875824     472.2015   0.74531379   -2403.1778   -19516.774   -3306036.7    -5218.185    180.29136 6.6467295e-08 -5.9059819e-08 
     750    6.9928735    247.98801    4.0373199     162.7236    2.0062639     476.1263    10.038249   -2403.1778   -14046.482   -3333509.3   -70280.927    208.77607 6.9721208e-08 -3.0632759e-08 
     760     6.992861    247.98801     4.037335    160.45138    3.3660218     476.8872    1.1009092   -2403.1778   -23566.619   -3338843.2   -7707.8254    234.69746 1.4922414e-08 -1.6236495e-08 
     770    6.9928652    247.98801    4.0373354    160.87692    1.9038379    480.16174    0.5651955   -2403.1778   -13329.401   -3361771.7   -3957.1213    264.80283 -6.7369735e-08 4.9597048e-08 
     780    6.9928772    247.98801    4.0373271    163.13181  -0.53276506     484.7489    5.1793084   -2403.1778    3730.0637   -3393886.7   -36262.044    294.74077 -8.2266618e-09 8.324013e-08 
     790    6.9928495    247.98801    4.0373422    164.82269    7.2425629    488.56564   -1.3401431   -2403.1778   -50707.557   -3420608.2     9382.781    321.93553 5.9395423e-08 6.9186932e-08 
     800     6.992881    247.98801    4.0373245    165.68862   -1.1732728     491.5343    6.7048263   -2403.1778    8214.4683   -3441393.2   -46942.693    345.87414 -5.8547952e-09 6.9431674e-08 
     810    6.9928546    247.98801      4.03734    166.61507    5.9360475    494.18374  -0.27456738   -2403.1778   -41560.222     -3459943    1922.3366    367.12161 3.2024298e-08 8.2511339e-08 
     820    6.9928749    247.98801    4.0373281    167.55264   0.82766189     496.3936    5.4366562   -2403.1778   -5794.7331   -3475414.9   -38063.818    381.68787 8.484402e-09 9.983774e-08 
     830    6.9928597    247.98801    4.0373371    168.22527    5.0536786    498.08104    1.5410826   -2403.1778   -35382.468   -3487229.3   -10789.627    391.09126 5.3873755e-08 7.4413153e-08 
     840    6.9928733    247.98801    4.0373299    168.52283    1.3996323    499.37135    4.7975178   -2403.1778   -9799.2884   -3496263.9   -33589.008    395.75231 8.427051e-08 7.1971029e-08 
     850     6.992861    247.98801    4.0373386     168.3992    4.3407442    500.37321   0.48363776   -2403.1778   -30390.996   -3503279.5    -3386.109    397.30113 8.682932e-08 1.1570198e-08 
     860    6.9928765    247.98801    4.0373316     168.0026  -0.33048995    501.19634    3.1419482   -2403.1778    2313.8714   -3509044.2   -21997.837    395.45885 1.0053847e-07 1.5426488e-08 
     870    6.9928676    247.98801    4.0373381    167.82942    1.6566247    502.05147  -0.21982531   -2403.1778   -11598.591   -3515032.5    1539.0715    391.38269 2.328328e-08 9.6964217e-09 
     880    6.9928726    247.98801     4.037336    167.89297   0.20659809    502.85089   0.62142621   -2403.1778   -1446.4635   -3520630.2   -4350.8163    385.54167 9.0960258e-08 3.1558602e-08 
     890     6.992873    247.98801     4.037336     168.0908   0.12616635    503.49351   0.65272677   -2403.1778   -883.33357   -3525129.6   -4569.9624    378.78578 2.1403407e-08 1.4700036e-08 
     900    6.9928677    247.98801    4.0373379    168.84016    2.0063613    504.26433   0.24977135   -2403.1778   -14047.214   -3530525.3   -1748.7338    370.77917 -8.7941445e-09 -1.3308653e-08 
     910    6.9928728    247.98801     4.037334    169.36556   0.96669241    504.77023    2.3597453   -2403.1778   -6768.1394   -3534066.5   -16521.373    359.77567 1.5921684e-08 1.5370508e-08 
     920    6.9928704    247.98801    4.0373371    168.66408    1.1256692    504.44155   0.42503034   -2403.1778   -7881.1925   -3531766.8   -2975.7819     345.0122 3.4534361e-08 -1.404601e-08 
     930    6.9928711    247.98801    4.0373367     168.5802   0.86542026    504.31859   0.55657996   -2403.1778   -6059.1014   -3530905.9   -3896.8055    325.92191 4.9946101e-08 -3.6356512e-08 
     940     6.992875    247.98801     4.037333    168.99552   0.13429172    504.31698    2.5352697   -2403.1778   -940.22166   -3530893.4   -17750.279    303.00328 8.5589523e-08 2.218951e-08 
     950    6.9928698    247.98801    4.0373376    168.04221    0.9289748    503.35501  -0.15736549   -2403.1778   -6504.0687   -3524159.7    1101.7693    276.36425 9.7479301e-08 -6.7687255e-08 
     960    6.9928712    247.98801    4.0373368    167.77251   0.49050139    502.69264   0.13437252   -2403.1778   -3434.1671   -3519522.3   -940.78773    249.96986 5.2979824e-08 -4.2778996e-08 
     970    6.9928761    247.98801    4.0373323    168.18447  -0.29898128    502.13111    2.7212754   -2403.1778    2093.2688   -3515589.3   -19052.567    210.33777 6.1626787e-08 -5.883877e-08 
     980    6.9928656    247.98801    4.0373373    168.15305     2.796116    500.94016   0.72286974   -2403.1778   -19576.546   -3507250.1   -5061.0536    148.86395 -2.382199e-08 -9.8203758e-08 
     990    6.9928723    247.98801     4.037334    167.38813   0.77305875     499.4101    1.9812207   -2403.1778   -5412.4445   -3496538.2   -13871.193    85.336016 -2.5912426e-08 -1.4004144e-07 
    1000     6.992869    247.98801    4.0373366    166.59182    1.2959099    498.05154   0.42800199   -2403.1778    -9073.103   -3487027.1   -2996.5865    23.765308 -8.4746927e-08 -1.9823541e-07 
Loop time of 7.27927 on 1 procs for 1000 steps with 600 atoms

99.9% CPU use with 1 MPI tasks x no OpenMP threads

Minimization stats:
  Stopping criterion = max iterations
  Energy initial, next-to-last, final = 
        -2403.17621755     -2403.17779346     -2403.17779347
  Force two-norm initial, final = 4.5189 0.00776791
  Force max component initial, final = 3.19686 0.00566395
  Final line search alpha, max atom move = 0.101211 0.000573251
  Iterations, force evaluations = 1000 2000

MPI task timing breakdown:
Section |  min time  |  avg time  |  max time  |%varavg| %total
---------------------------------------------------------------
Pair    | 6.2209     | 6.2209     | 6.2209     |   0.0 | 85.46
Neigh   | 0          | 0          | 0          |   0.0 |  0.00
Comm    | 0.25805    | 0.25805    | 0.25805    |   0.0 |  3.54
Output  | 0.057691   | 0.057691   | 0.057691   |   0.0 |  0.79
Modify  | 0          | 0          | 0          |   0.0 |  0.00
Other   |            | 0.7427     |            |       | 10.20

Nlocal:    600 ave 600 max 600 min
Histogram: 1 0 0 0 0 0 0 0 0 0
Nghost:    7986 ave 7986 max 7986 min
Histogram: 1 0 0 0 0 0 0 0 0 0
Neighs:    40832 ave 40832 max 40832 min
Histogram: 1 0 0 0 0 0 0 0 0 0

Total # of neighbors = 40832
Ave neighs/atom = 68.0533
Neighbor list builds = 0
Dangerous builds = 0
unfix 1

# Compute distance for each side of the grain boundary to displace
variable ly1 equal ly
variable ly0 equal ${ly1}
variable ly0 equal 247.988006
variable lydelta equal "v_strain*v_ly0/2"

# Setup file output (time in ps, pressure in GPa)
variable p1 equal "(ly-v_ly0)/v_ly0"
variable p2 equal "-pxx/10000"
variable p3 equal "-pyy/10000"
variable p4 equal "-pzz/10000"
variable p5 equal "-pxy/10000"
variable p6 equal "-pxz/10000"
variable p7 equal "-pyz/10000"
variable p8 equal "pe"

# Output stress and strain information to datafile for Matlab post-processing
fix equil1 all print 1 "${p1} ${p2} ${p3} ${p4} ${p5} ${p6} ${p7} ${p8}" file data.${datfile}.txt screen no
fix equil1 all print 1 "${p1} ${p2} ${p3} ${p4} ${p5} ${p6} ${p7} ${p8}" file data.Fe_110_sig3.txt.txt screen no
fix 1 all nve
run 1
Per MPI rank memory allocation (min/avg/max) = 4.843 | 4.843 | 4.843 Mbytes
Step Lx Ly Lz Press Pxx Pyy Pzz PotEng c_stress1 c_stress2 c_stress3 c_stress4 c_stress5 c_stress6 
    1000     6.992869    247.98801    4.0373366    166.59182    1.2959099    498.05154   0.42800199   -2403.1778    -9073.103   -3487027.1   -2996.5865    23.765308 -9.9128125e-08 -1.9524187e-07 
    1001     6.992869    247.98801    4.0373366    166.59182    1.2958177    498.05174   0.42791267   -2403.1778   -9072.4576   -3487028.5   -2995.9612    23.754416 -5.4587861e-08 -1.2997365e-07 
Loop time of 0.00430012 on 1 procs for 1 steps with 600 atoms

Performance: 20.092 ns/day, 1.194 hours/ns, 232.552 timesteps/s
100.0% CPU use with 1 MPI tasks x no OpenMP threads

MPI task timing breakdown:
Section |  min time  |  avg time  |  max time  |%varavg| %total
---------------------------------------------------------------
Pair    | 0.0035729  | 0.0035729  | 0.0035729  |   0.0 | 83.09
Neigh   | 0          | 0          | 0          |   0.0 |  0.00
Comm    | 0.0001297  | 0.0001297  | 0.0001297  |   0.0 |  3.02
Output  | 0.00051212 | 0.00051212 | 0.00051212 |   0.0 | 11.91
Modify  | 7.6294e-05 | 7.6294e-05 | 7.6294e-05 |   0.0 |  1.77
Other   |            | 9.06e-06   |            |       |  0.21

Nlocal:    600 ave 600 max 600 min
Histogram: 1 0 0 0 0 0 0 0 0 0
Nghost:    7986 ave 7986 max 7986 min
Histogram: 1 0 0 0 0 0 0 0 0 0
Neighs:    40832 ave 40832 max 40832 min
Histogram: 1 0 0 0 0 0 0 0 0 0

Total # of neighbors = 40832
Ave neighs/atom = 68.0533
Neighbor list builds = 0
Dangerous builds = 0
unfix 1
variable pressf1 equal pyy
variable pressf equal ${pressf1}
variable pressf equal 498.051737042571

##########################################
# Create cfg files with stress in y direction for AtomEye viewing

dump 1 all cfg 500 ${datfile}_*.cfg mass type xs ys zs c_stress[2]
dump 1 all cfg 500 Fe_110_sig3.txt_*.cfg mass type xs ys zs c_stress[2]
##########################################
# CREATE REGIONS FOR BOUNDARY CONDITIONS

# Delete groups of atoms far from boundary
region rlow block 0 200 -200 -${deldist} 0 200 units box
region rlow block 0 200 -200 -50 0 200 units box
region rhigh block 0 200 ${deldist} 200 0 200 units box
region rhigh block 0 200 50 200 0 200 units box
group glow region rlow
180 atoms in group glow
group ghigh region rhigh
180 atoms in group ghigh

delete_atoms group glow
Deleted 180 atoms, new total = 420
delete_atoms group ghigh
Deleted 180 atoms, new total = 240

# Create groups to fix and displace
region rgblow block 0 200 -200 -${fixdist} 0 200 units box
region rgblow block 0 200 -200 -45 0 200 units box
region rgbhigh block 0 200 ${fixdist} 200 0 200 units box
region rgbhigh block 0 200 45 200 0 200 units box
group gbhigh region rgbhigh
12 atoms in group gbhigh
group gblow region rgblow
12 atoms in group gblow

# Put fixed boundary condition on edge atoms by setting forces to zero
fix 2 gbhigh setforce 0 0 0
fix 3 gblow setforce 0 0 0
##########################################
# MS Deformation loop

variable a loop ${nloop}
variable a loop 100
label loop

# Increase box bound and minimize again
#reset_timestep 0

change_box gblow y delta -${lydelta} 0 units box
change_box gblow y delta -0.123994003 0 units box
  orthogonal box = (0.000595477 -124.118 0.00034169) to (6.99346 123.994 4.03768)
change_box gbhigh y delta 0 ${lydelta} units box
change_box gbhigh y delta 0 0.123994003 units box
  orthogonal box = (0.000595477 -124.118 0.00034169) to (6.99346 124.118 4.03768)

minimize 1.0e-25 1.0e-25 1000 10000
WARNING: Using 'neigh_modify every 1 delay 0 check yes' setting during minimization (/home/conda/feedstock_root/build_artifacts/lammps_1526417570236/work/src/min.cpp:168)
Per MPI rank memory allocation (min/avg/max) = 5.968 | 5.968 | 5.968 Mbytes
Step Lx Ly Lz Press Pxx Pyy Pzz PotEng c_stress1 c_stress2 c_stress3 c_stress4 c_stress5 c_stress6 
    1001     6.992869    248.23599    4.0373366   -595.62597   -751.31764   -283.91634   -751.64394   -953.83938    5265488.8      1989782    5267775.6   -24815.289 -5.1884585e-08 -5.249696e-08 
    1010     6.992869    248.23599    4.0373366   -596.01096   -751.37416   -284.99044   -751.66829   -953.83939    5265884.9    1997309.7    5267946.3   -23837.197 -2.9272167e-08 5.5358739e-08 
    1020     6.992869    248.23599    4.0373366   -596.89858   -751.67257   -287.05771   -751.96548   -953.83939    5267976.3    2011797.8    5270029.1    -24423.32 -4.6089349e-08 3.5541385e-08 
    1030     6.992869    248.23599    4.0373366   -596.96461    -751.6774   -287.24447   -751.97196   -953.83939    5268010.1    2013106.7    5270074.6   -24336.835 -5.7365916e-08 1.1140301e-08 
    1040     6.992869    248.23599    4.0373366   -596.95499   -751.68004   -287.21852   -751.96641   -953.83939    5268028.6    2012924.8    5270035.6   -24472.361 -2.0085463e-08 4.8823971e-08 
    1050     6.992869    248.23599    4.0373366   -596.96206   -751.68291   -287.23665   -751.96661   -953.83939    5268048.8    2013051.9      5270037   -24525.252 -2.5939325e-08 4.7451257e-08 
    1060     6.992869    248.23599    4.0373366   -596.96183   -751.68196   -287.23613    -751.9674   -953.83939    5268042.1    2013048.2    5270042.6   -24507.228 -5.1817395e-08 1.3839326e-09 
    1070     6.992869    248.23599    4.0373366   -596.96238   -751.68097   -287.23743   -751.96874   -953.83939    5268035.2    2013057.3    5270051.9   -24514.175 -5.5423699e-09 3.0761962e-08 
    1080     6.992869    248.23599    4.0373366   -596.96216   -751.68089    -287.2369   -751.96869   -953.83939    5268034.6    2013053.6    5270051.6   -24520.501 -4.3363667e-08 3.4142313e-08 
    1090     6.992869    248.23599    4.0373366   -596.96209   -751.68101   -287.23673   -751.96852   -953.83939    5268035.4    2013052.4    5270050.4   -24522.166 -4.8764629e-08 5.4369856e-08 
    1100     6.992869    248.23599    4.0373366   -596.96209   -751.68122   -287.23674   -751.96831   -953.83939    5268036.9    2013052.5    5270048.9   -24522.014 -2.3643942e-08 5.030092e-08 
    1110     6.992869    248.23599    4.0373366   -596.96211   -751.68126   -287.23678   -751.96829   -953.83939    5268037.2    2013052.8    5270048.8   -24521.909 -3.1632512e-08 6.4289825e-08 
    1120     6.992869    248.23599    4.0373366   -596.96211   -751.68119   -287.23678   -751.96835   -953.83939    5268036.7    2013052.8    5270049.3   -24521.877 -3.6379892e-08 5.4841198e-08 
    1130     6.992869    248.23599    4.0373366   -596.96209   -751.68092   -287.23673   -751.96861   -953.83939    5268034.9    2013052.4    5270051.1   -24521.879 -3.5246676e-08 7.5176385e-08 
    1140     6.992869    248.23599    4.0373366    -596.9621   -751.68088   -287.23676   -751.96866   -953.83939    5268034.6    2013052.6    5270051.4   -24521.895 -1.151693e-07 4.2475458e-08 
Loop time of 0.356139 on 1 procs for 139 steps with 240 atoms

100.0% CPU use with 1 MPI tasks x no OpenMP threads

Minimization stats:
  Stopping criterion = energy tolerance
  Energy initial, next-to-last, final = 
        -953.839378865     -953.839387552     -953.839387552
  Force two-norm initial, final = 0.00303621 7.57297e-09
  Force max component initial, final = 0.000628233 1.26326e-09
  Final line search alpha, max atom move = 1 1.26326e-09
  Iterations, force evaluations = 139 278

MPI task timing breakdown:
Section |  min time  |  avg time  |  max time  |%varavg| %total
---------------------------------------------------------------
Pair    | 0.33283    | 0.33283    | 0.33283    |   0.0 | 93.45
Neigh   | 0          | 0          | 0          |   0.0 |  0.00
Comm    | 0.01375    | 0.01375    | 0.01375    |   0.0 |  3.86
Output  | 0.0034714  | 0.0034714  | 0.0034714  |   0.0 |  0.97
Modify  | 0.0003736  | 0.0003736  | 0.0003736  |   0.0 |  0.10
Other   |            | 0.005717   |            |       |  1.61

Nlocal:    240 ave 240 max 240 min
Histogram: 1 0 0 0 0 0 0 0 0 0
Nghost:    3000 ave 3000 max 3000 min
Histogram: 1 0 0 0 0 0 0 0 0 0
Neighs:    15892 ave 15892 max 15892 min
Histogram: 1 0 0 0 0 0 0 0 0 0

Total # of neighbors = 15892
Ave neighs/atom = 66.2167
Neighbor list builds = 0
Dangerous builds = 0

run 1
Per MPI rank memory allocation (min/avg/max) = 6.104 | 6.104 | 6.104 Mbytes
Step Lx Ly Lz Press Pxx Pyy Pzz PotEng c_stress1 c_stress2 c_stress3 c_stress4 c_stress5 c_stress6 
    1140     6.992869    248.23599    4.0373366    -596.9621   -751.68088   -287.23676   -751.96866   -953.83939    5268034.6    2013052.6    5270051.4   -24521.895 -1.0994657e-07 4.5980931e-08 
    1141     6.992869    248.23599    4.0373366    -596.9621   -751.68088   -287.23676   -751.96866   -953.83939    5268034.6    2013052.6    5270051.4   -24521.895 -1.0994657e-07 4.5980931e-08 
Loop time of 0.00174284 on 1 procs for 1 steps with 240 atoms

Performance: 49.574 ns/day, 0.484 hours/ns, 573.776 timesteps/s
100.1% CPU use with 1 MPI tasks x no OpenMP threads

MPI task timing breakdown:
Section |  min time  |  avg time  |  max time  |%varavg| %total
---------------------------------------------------------------
Pair    | 0.0014241  | 0.0014241  | 0.0014241  |   0.0 | 81.71
Neigh   | 0          | 0          | 0          |   0.0 |  0.00
Comm    | 4.8876e-05 | 4.8876e-05 | 4.8876e-05 |   0.0 |  2.80
Output  | 0.00021601 | 0.00021601 | 0.00021601 |   0.0 | 12.39
Modify  | 4.8876e-05 | 4.8876e-05 | 4.8876e-05 |   0.0 |  2.80
Other   |            | 5.007e-06  |            |       |  0.29

Nlocal:    240 ave 240 max 240 min
Histogram: 1 0 0 0 0 0 0 0 0 0
Nghost:    3000 ave 3000 max 3000 min
Histogram: 1 0 0 0 0 0 0 0 0 0
Neighs:    15892 ave 15892 max 15892 min
Histogram: 1 0 0 0 0 0 0 0 0 0

Total # of neighbors = 15892
Ave neighs/atom = 66.2167
Neighbor list builds = 0
Dangerous builds = 0

print "Pressf: ${pressf}"
Pressf: 498.051737042571
variable pdiff equal "pyy - v_pressf"
print "Pressf: ${pressf}"
Pressf: 498.051737042571
print "Pdiff: ${pdiff}"
Pdiff: -785.288495491576
#if ${pdiff} > 10000 then "exit"
variable pressf1 equal pyy
variable pressf equal ${pressf1}
variable pressf equal -287.236758449005

next a
jump lmmps.06.inp loop

# Increase box bound and minimize again
#reset_timestep 0

change_box gblow y delta -${lydelta} 0 units box
change_box gblow y delta -0.123994003 0 units box
  orthogonal box = (0.000595477 -124.242 0.00034169) to (6.99346 124.118 4.03768)
change_box gbhigh y delta 0 ${lydelta} units box
change_box gbhigh y delta 0 0.123994003 units box
  orthogonal box = (0.000595477 -124.242 0.00034169) to (6.99346 124.242 4.03768)

minimize 1.0e-25 1.0e-25 1000 10000
WARNING: Using 'neigh_modify every 1 delay 0 check yes' setting during minimization (/home/conda/feedstock_root/build_artifacts/lammps_1526417570236/work/src/min.cpp:168)
Per MPI rank memory allocation (min/avg/max) = 7.229 | 7.229 | 7.229 Mbytes
Step Lx Ly Lz Press Pxx Pyy Pzz PotEng c_stress1 c_stress2 c_stress3 c_stress4 c_stress5 c_stress6 
    1141     6.992869    248.48398    4.0373366   -596.36633    -750.9307    -286.9501   -751.21819   -953.83939    5268034.6    2013052.6    5270051.4   -24521.895 -1.0827793e-07 4.4723261e-08 
    1150     6.992869    248.48398    4.0373366   -596.36633   -750.93071    -286.9501   -751.21819   -953.83939    5268034.6    2013052.7    5270051.4   -24521.897 -9.2642827e-08 2.2266126e-08 
    1160     6.992869    248.48398    4.0373366   -596.36634   -750.93071   -286.95011   -751.21819   -953.83939    5268034.6    2013052.7    5270051.4   -24521.899 -4.1244177e-08 2.7922239e-08 
    1170     6.992869    248.48398    4.0373366   -596.36634    -750.9307   -286.95011   -751.21819   -953.83939    5268034.6    2013052.7    5270051.4     -24521.9 -6.8791668e-08 6.3083674e-08 
    1180     6.992869    248.48398    4.0373366   -596.36634    -750.9307   -286.95011   -751.21819   -953.83939    5268034.6    2013052.7    5270051.4     -24521.9 -5.9895884e-08 4.6268445e-08 
    1190     6.992869    248.48398    4.0373366   -596.36634    -750.9307   -286.95011   -751.21819   -953.83939    5268034.6    2013052.7    5270051.4     -24521.9 -3.9162611e-08 1.9555582e-08 
    1200     6.992869    248.48398    4.0373366   -596.36634    -750.9307   -286.95011   -751.21819   -953.83939    5268034.6    2013052.7    5270051.4     -24521.9 -6.1569153e-08 7.0217658e-08 
    1210     6.992869    248.48398    4.0373366   -596.36634    -750.9307   -286.95011   -751.21819   -953.83939    5268034.6    2013052.7    5270051.4     -24521.9 -4.4215388e-08 1.6691262e-08 
    1219     6.992869    248.48398    4.0373366   -596.36634    -750.9307   -286.95011   -751.21819   -953.83939    5268034.6    2013052.7    5270051.4     -24521.9 -6.3563307e-08 2.003766e-08 
Loop time of 0.194146 on 1 procs for 78 steps with 240 atoms

100.0% CPU use with 1 MPI tasks x no OpenMP threads

Minimization stats:
  Stopping criterion = energy tolerance
  Energy initial, next-to-last, final = 
        -953.839387552     -953.839387552     -953.839387552
  Force two-norm initial, final = 7.57297e-09 1.71517e-11
  Force max component initial, final = 1.26326e-09 2.95266e-12
  Final line search alpha, max atom move = 1 2.95266e-12
  Iterations, force evaluations = 78 156

MPI task timing breakdown:
Section |  min time  |  avg time  |  max time  |%varavg| %total
---------------------------------------------------------------
Pair    | 0.1812     | 0.1812     | 0.1812     |   0.0 | 93.33
Neigh   | 0          | 0          | 0          |   0.0 |  0.00
Comm    | 0.0074921  | 0.0074921  | 0.0074921  |   0.0 |  3.86
Output  | 0.0016568  | 0.0016568  | 0.0016568  |   0.0 |  0.85
Modify  | 0.00019217 | 0.00019217 | 0.00019217 |   0.0 |  0.10
Other   |            | 0.003609   |            |       |  1.86

Nlocal:    240 ave 240 max 240 min
Histogram: 1 0 0 0 0 0 0 0 0 0
Nghost:    3000 ave 3000 max 3000 min
Histogram: 1 0 0 0 0 0 0 0 0 0
Neighs:    15892 ave 15892 max 15892 min
Histogram: 1 0 0 0 0 0 0 0 0 0

Total # of neighbors = 15892
Ave neighs/atom = 66.2167
Neighbor list builds = 0
Dangerous builds = 0

run 1
Per MPI rank memory allocation (min/avg/max) = 6.104 | 6.104 | 6.104 Mbytes
Step Lx Ly Lz Press Pxx Pyy Pzz PotEng c_stress1 c_stress2 c_stress3 c_stress4 c_stress5 c_stress6 
    1219     6.992869    248.48398    4.0373366   -596.36634    -750.9307   -286.95011   -751.21819   -953.83939    5268034.6    2013052.7    5270051.4     -24521.9 -6.8585793e-08 2.0008898e-08 
    1220     6.992869    248.48398    4.0373366   -596.36634    -750.9307   -286.95011   -751.21819   -953.83939    5268034.6    2013052.7    5270051.4     -24521.9 -6.8585793e-08 2.0008898e-08 
Loop time of 0.00167513 on 1 procs for 1 steps with 240 atoms

Performance: 51.578 ns/day, 0.465 hours/ns, 596.969 timesteps/s
100.1% CPU use with 1 MPI tasks x no OpenMP threads

MPI task timing breakdown:
Section |  min time  |  avg time  |  max time  |%varavg| %total
---------------------------------------------------------------
Pair    | 0.0013759  | 0.0013759  | 0.0013759  |   0.0 | 82.14
Neigh   | 0          | 0          | 0          |   0.0 |  0.00
Comm    | 4.6968e-05 | 4.6968e-05 | 4.6968e-05 |   0.0 |  2.80
Output  | 0.00020385 | 0.00020385 | 0.00020385 |   0.0 | 12.17
Modify  | 4.4107e-05 | 4.4107e-05 | 4.4107e-05 |   0.0 |  2.63
Other   |            | 4.292e-06  |            |       |  0.26

Nlocal:    240 ave 240 max 240 min
Histogram: 1 0 0 0 0 0 0 0 0 0
Nghost:    3000 ave 3000 max 3000 min
Histogram: 1 0 0 0 0 0 0 0 0 0
Neighs:    15892 ave 15892 max 15892 min
Histogram: 1 0 0 0 0 0 0 0 0 0

Total # of neighbors = 15892
Ave neighs/atom = 66.2167
Neighbor list builds = 0
Dangerous builds = 0

print "Pressf: ${pressf}"
Pressf: -287.236758449005
variable pdiff equal "pyy - v_pressf"
print "Pressf: ${pressf}"
Pressf: -287.236758449005
print "Pdiff: ${pdiff}"
Pdiff: 0.286649532855847
#if ${pdiff} > 10000 then "exit"
variable pressf1 equal pyy
variable pressf equal ${pressf1}
variable pressf equal -286.950108916149

next a
jump lmmps.06.inp loop

# Increase box bound and minimize again
#reset_timestep 0

change_box gblow y delta -${lydelta} 0 units box
change_box gblow y delta -0.123994003 0 units box
  orthogonal box = (0.000595477 -124.366 0.00034169) to (6.99346 124.242 4.03768)
change_box gbhigh y delta 0 ${lydelta} units box
change_box gbhigh y delta 0 0.123994003 units box
  orthogonal box = (0.000595477 -124.366 0.00034169) to (6.99346 124.366 4.03768)

minimize 1.0e-25 1.0e-25 1000 10000
WARNING: Using 'neigh_modify every 1 delay 0 check yes' setting during minimization (/home/conda/feedstock_root/build_artifacts/lammps_1526417570236/work/src/min.cpp:168)
Per MPI rank memory allocation (min/avg/max) = 7.229 | 7.229 | 7.229 Mbytes
Step Lx Ly Lz Press Pxx Pyy Pzz PotEng c_stress1 c_stress2 c_stress3 c_stress4 c_stress5 c_stress6 
    1220     6.992869    248.73197    4.0373366   -595.77175   -750.18202   -286.66402   -750.46922   -953.83939    5268034.6    2013052.7    5270051.4     -24521.9 -6.8585793e-08 2.0008898e-08 
    1230     6.992869    248.73197    4.0373366   -595.77175   -750.18202   -286.66402   -750.46922   -953.83939    5268034.6    2013052.7    5270051.4     -24521.9 -2.6681323e-08 5.5152221e-08 
    1240     6.992869    248.73197    4.0373366   -595.77175   -750.18202   -286.66402   -750.46922   -953.83939    5268034.6    2013052.7    5270051.4     -24521.9 -6.249707e-08 1.9447162e-08 
    1250     6.992869    248.73197    4.0373366   -595.77175   -750.18202   -286.66402   -750.46922   -953.83939    5268034.6    2013052.7    5270051.4     -24521.9 -3.0047047e-08 3.9025338e-08 
    1260     6.992869    248.73197    4.0373366   -595.77175   -750.18202   -286.66402   -750.46922   -953.83939    5268034.6    2013052.7    5270051.4     -24521.9 -2.9778369e-08 2.4366666e-08 
    1270     6.992869    248.73197    4.0373366   -595.77175   -750.18202   -286.66402   -750.46922   -953.83939    5268034.6    2013052.7    5270051.4     -24521.9 1.6951278e-09 2.0092562e-08 
    1276     6.992869    248.73197    4.0373366   -595.77175   -750.18202   -286.66402   -750.46922   -953.83939    5268034.6    2013052.7    5270051.4     -24521.9 -8.7089207e-08 4.2713035e-08 
Loop time of 0.140814 on 1 procs for 56 steps with 240 atoms

100.0% CPU use with 1 MPI tasks x no OpenMP threads

Minimization stats:
  Stopping criterion = energy tolerance
  Energy initial, next-to-last, final = 
        -953.839387552     -953.839387552     -953.839387552
  Force two-norm initial, final = 1.71529e-11 6.85426e-13
  Force max component initial, final = 2.95285e-12 1.23249e-13
  Final line search alpha, max atom move = 1 1.23249e-13
  Iterations, force evaluations = 56 112

MPI task timing breakdown:
Section |  min time  |  avg time  |  max time  |%varavg| %total
---------------------------------------------------------------
Pair    | 0.13121    | 0.13121    | 0.13121    |   0.0 | 93.18
Neigh   | 0          | 0          | 0          |   0.0 |  0.00
Comm    | 0.0054495  | 0.0054495  | 0.0054495  |   0.0 |  3.87
Output  | 0.0012152  | 0.0012152  | 0.0012152  |   0.0 |  0.86
Modify  | 0.00013041 | 0.00013041 | 0.00013041 |   0.0 |  0.09
Other   |            | 0.002812   |            |       |  2.00

Nlocal:    240 ave 240 max 240 min
Histogram: 1 0 0 0 0 0 0 0 0 0
Nghost:    3000 ave 3000 max 3000 min
Histogram: 1 0 0 0 0 0 0 0 0 0
Neighs:    15892 ave 15892 max 15892 min
Histogram: 1 0 0 0 0 0 0 0 0 0

Total # of neighbors = 15892
Ave neighs/atom = 66.2167
Neighbor list builds = 0
Dangerous builds = 0

run 1
Per MPI rank memory allocation (min/avg/max) = 6.104 | 6.104 | 6.104 Mbytes
Step Lx Ly Lz Press Pxx Pyy Pzz PotEng c_stress1 c_stress2 c_stress3 c_stress4 c_stress5 c_stress6 
    1276     6.992869    248.73197    4.0373366   -595.77175   -750.18202   -286.66402   -750.46922   -953.83939    5268034.6    2013052.7    5270051.4     -24521.9 -4.8317137e-08 3.3858095e-08 
    1277     6.992869    248.73197    4.0373366   -595.77175   -750.18202   -286.66402   -750.46922   -953.83939    5268034.6    2013052.7    5270051.4     -24521.9 -4.8317137e-08 3.3858095e-08 
Loop time of 0.00165486 on 1 procs for 1 steps with 240 atoms

Performance: 52.210 ns/day, 0.460 hours/ns, 604.279 timesteps/s
99.7% CPU use with 1 MPI tasks x no OpenMP threads

MPI task timing breakdown:
Section |  min time  |  avg time  |  max time  |%varavg| %total
---------------------------------------------------------------
Pair    | 0.001358   | 0.001358   | 0.001358   |   0.0 | 82.06
Neigh   | 0          | 0          | 0          |   0.0 |  0.00
Comm    | 4.7922e-05 | 4.7922e-05 | 4.7922e-05 |   0.0 |  2.90
Output  | 0.00020313 | 0.00020313 | 0.00020313 |   0.0 | 12.27
Modify  | 4.1962e-05 | 4.1962e-05 | 4.1962e-05 |   0.0 |  2.54
Other   |            | 3.815e-06  |            |       |  0.23

Nlocal:    240 ave 240 max 240 min
Histogram: 1 0 0 0 0 0 0 0 0 0
Nghost:    3000 ave 3000 max 3000 min
Histogram: 1 0 0 0 0 0 0 0 0 0
Neighs:    15892 ave 15892 max 15892 min
Histogram: 1 0 0 0 0 0 0 0 0 0

Total # of neighbors = 15892
Ave neighs/atom = 66.2167
Neighbor list builds = 0
Dangerous builds = 0

print "Pressf: ${pressf}"
Pressf: -286.950108916149
variable pdiff equal "pyy - v_pressf"
print "Pressf: ${pressf}"
Pressf: -286.950108916149
print "Pdiff: ${pdiff}"
Pdiff: 0.286091836525827
#if ${pdiff} > 10000 then "exit"
variable pressf1 equal pyy
variable pressf equal ${pressf1}
variable pressf equal -286.664017079623

next a
jump lmmps.06.inp loop

# Increase box bound and minimize again
#reset_timestep 0

change_box gblow y delta -${lydelta} 0 units box
change_box gblow y delta -0.123994003 0 units box
  orthogonal box = (0.000595477 -124.49 0.00034169) to (6.99346 124.366 4.03768)
change_box gbhigh y delta 0 ${lydelta} units box
change_box gbhigh y delta 0 0.123994003 units box
  orthogonal box = (0.000595477 -124.49 0.00034169) to (6.99346 124.49 4.03768)

minimize 1.0e-25 1.0e-25 1000 10000
WARNING: Using 'neigh_modify every 1 delay 0 check yes' setting during minimization (/home/conda/feedstock_root/build_artifacts/lammps_1526417570236/work/src/min.cpp:168)
Per MPI rank memory allocation (min/avg/max) = 7.229 | 7.229 | 7.229 Mbytes
Step Lx Ly Lz Press Pxx Pyy Pzz PotEng c_stress1 c_stress2 c_stress3 c_stress4 c_stress5 c_stress6 
    1277     6.992869    248.97996    4.0373366   -595.17835   -749.43482    -286.3785   -749.72174   -953.83939    5268034.6    2013052.7    5270051.4     -24521.9 -4.8113158e-08 3.3457198e-08 
    1279     6.992869    248.97996    4.0373366   -595.17835   -749.43482    -286.3785   -749.72174   -953.83939    5268034.6    2013052.7    5270051.4     -24521.9 -2.4479722e-08  4.50818e-08 
Loop time of 0.00822496 on 1 procs for 2 steps with 240 atoms

99.8% CPU use with 1 MPI tasks x no OpenMP threads

Minimization stats:
  Stopping criterion = energy tolerance
  Energy initial, next-to-last, final = 
        -953.839387552     -953.839387552     -953.839387552
  Force two-norm initial, final = 6.84925e-13 3.99373e-13
  Force max component initial, final = 1.23235e-13 8.79019e-14
  Final line search alpha, max atom move = 1 8.79019e-14
  Iterations, force evaluations = 2 4

MPI task timing breakdown:
Section |  min time  |  avg time  |  max time  |%varavg| %total
---------------------------------------------------------------
Pair    | 0.0069518  | 0.0069518  | 0.0069518  |   0.0 | 84.52
Neigh   | 0          | 0          | 0          |   0.0 |  0.00
Comm    | 0.00023437 | 0.00023437 | 0.00023437 |   0.0 |  2.85
Output  | 0          | 0          | 0          |   0.0 |  0.00
Modify  | 7.6294e-06 | 7.6294e-06 | 7.6294e-06 |   0.0 |  0.09
Other   |            | 0.001031   |            |       | 12.54

Nlocal:    240 ave 240 max 240 min
Histogram: 1 0 0 0 0 0 0 0 0 0
Nghost:    3000 ave 3000 max 3000 min
Histogram: 1 0 0 0 0 0 0 0 0 0
Neighs:    15892 ave 15892 max 15892 min
Histogram: 1 0 0 0 0 0 0 0 0 0

Total # of neighbors = 15892
Ave neighs/atom = 66.2167
Neighbor list builds = 0
Dangerous builds = 0

run 1
Per MPI rank memory allocation (min/avg/max) = 6.104 | 6.104 | 6.104 Mbytes
Step Lx Ly Lz Press Pxx Pyy Pzz PotEng c_stress1 c_stress2 c_stress3 c_stress4 c_stress5 c_stress6 
    1279     6.992869    248.97996    4.0373366   -595.17835   -749.43482    -286.3785   -749.72174   -953.83939    5268034.6    2013052.7    5270051.4     -24521.9 -1.7533229e-08 5.0157047e-08 
    1280     6.992869    248.97996    4.0373366   -595.17835   -749.43482    -286.3785   -749.72174   -953.83939    5268034.6    2013052.7    5270051.4     -24521.9 -1.7533229e-08 5.0157047e-08 
Loop time of 0.00171804 on 1 procs for 1 steps with 240 atoms

Performance: 50.290 ns/day, 0.477 hours/ns, 582.057 timesteps/s
100.0% CPU use with 1 MPI tasks x no OpenMP threads

MPI task timing breakdown:
Section |  min time  |  avg time  |  max time  |%varavg| %total
---------------------------------------------------------------
Pair    | 0.0013912  | 0.0013912  | 0.0013912  |   0.0 | 80.97
Neigh   | 0          | 0          | 0          |   0.0 |  0.00
Comm    | 4.7922e-05 | 4.7922e-05 | 4.7922e-05 |   0.0 |  2.79
Output  | 0.00022888 | 0.00022888 | 0.00022888 |   0.0 | 13.32
Modify  | 4.5061e-05 | 4.5061e-05 | 4.5061e-05 |   0.0 |  2.62
Other   |            | 5.007e-06  |            |       |  0.29

Nlocal:    240 ave 240 max 240 min
Histogram: 1 0 0 0 0 0 0 0 0 0
Nghost:    3000 ave 3000 max 3000 min
Histogram: 1 0 0 0 0 0 0 0 0 0
Neighs:    15892 ave 15892 max 15892 min
Histogram: 1 0 0 0 0 0 0 0 0 0

Total # of neighbors = 15892
Ave neighs/atom = 66.2167
Neighbor list builds = 0
Dangerous builds = 0

print "Pressf: ${pressf}"
Pressf: -286.664017079623
variable pdiff equal "pyy - v_pressf"
print "Pressf: ${pressf}"
Pressf: -286.664017079623
print "Pdiff: ${pdiff}"
Pdiff: 0.285521929416916
#if ${pdiff} > 10000 then "exit"
variable pressf1 equal pyy
variable pressf equal ${pressf1}
variable pressf equal -286.378495150206

next a
jump lmmps.06.inp loop

# Increase box bound and minimize again
#reset_timestep 0

change_box gblow y delta -${lydelta} 0 units box
change_box gblow y delta -0.123994003 0 units box
  orthogonal box = (0.000595477 -124.614 0.00034169) to (6.99346 124.49 4.03768)
change_box gbhigh y delta 0 ${lydelta} units box
change_box gbhigh y delta 0 0.123994003 units box
  orthogonal box = (0.000595477 -124.614 0.00034169) to (6.99346 124.614 4.03768)

minimize 1.0e-25 1.0e-25 1000 10000
WARNING: Using 'neigh_modify every 1 delay 0 check yes' setting during minimization (/home/conda/feedstock_root/build_artifacts/lammps_1526417570236/work/src/min.cpp:168)
Per MPI rank memory allocation (min/avg/max) = 7.229 | 7.229 | 7.229 Mbytes
Step Lx Ly Lz Press Pxx Pyy Pzz PotEng c_stress1 c_stress2 c_stress3 c_stress4 c_stress5 c_stress6 
    1280     6.992869    249.22795    4.0373366   -594.58614   -748.68912   -286.09354   -748.97575   -953.83939    5268034.6    2013052.7    5270051.4     -24521.9 -1.7533229e-08 5.0157047e-08 
    1290     6.992869    249.22795    4.0373366   -594.58614   -748.68912   -286.09354   -748.97575   -953.83939    5268034.6    2013052.7    5270051.4     -24521.9 -8.5970034e-08 4.4448759e-08 
    1296     6.992869    249.22795    4.0373366   -594.58614   -748.68912   -286.09354   -748.97575   -953.83939    5268034.6    2013052.7    5270051.4     -24521.9 -3.3014355e-08 6.4721327e-08 
Loop time of 0.043385 on 1 procs for 16 steps with 240 atoms

100.0% CPU use with 1 MPI tasks x no OpenMP threads

Minimization stats:
  Stopping criterion = energy tolerance
  Energy initial, next-to-last, final = 
        -953.839387552     -953.839387552     -953.839387552
  Force two-norm initial, final = 3.99268e-13 5.37861e-13
  Force max component initial, final = 8.79019e-14 1.07803e-13
  Final line search alpha, max atom move = 1 1.07803e-13
  Iterations, force evaluations = 16 32

MPI task timing breakdown:
Section |  min time  |  avg time  |  max time  |%varavg| %total
---------------------------------------------------------------
Pair    | 0.04001    | 0.04001    | 0.04001    |   0.0 | 92.22
Neigh   | 0          | 0          | 0          |   0.0 |  0.00
Comm    | 0.0016091  | 0.0016091  | 0.0016091  |   0.0 |  3.71
Output  | 0.00025892 | 0.00025892 | 0.00025892 |   0.0 |  0.60
Modify  | 4.6492e-05 | 4.6492e-05 | 4.6492e-05 |   0.0 |  0.11
Other   |            | 0.00146    |            |       |  3.37

Nlocal:    240 ave 240 max 240 min
Histogram: 1 0 0 0 0 0 0 0 0 0
Nghost:    3000 ave 3000 max 3000 min
Histogram: 1 0 0 0 0 0 0 0 0 0
Neighs:    15892 ave 15892 max 15892 min
Histogram: 1 0 0 0 0 0 0 0 0 0

Total # of neighbors = 15892
Ave neighs/atom = 66.2167
Neighbor list builds = 0
Dangerous builds = 0

run 1
Per MPI rank memory allocation (min/avg/max) = 6.104 | 6.104 | 6.104 Mbytes
Step Lx Ly Lz Press Pxx Pyy Pzz PotEng c_stress1 c_stress2 c_stress3 c_stress4 c_stress5 c_stress6 
    1296     6.992869    249.22795    4.0373366   -594.58614   -748.68912   -286.09354   -748.97575   -953.83939    5268034.6    2013052.7    5270051.4     -24521.9 -4.0725774e-08 5.9597204e-08 
    1297     6.992869    249.22795    4.0373366   -594.58614   -748.68912   -286.09354   -748.97575   -953.83939    5268034.6    2013052.7    5270051.4     -24521.9 -4.0725774e-08 5.9597204e-08 
Loop time of 0.00174499 on 1 procs for 1 steps with 240 atoms

Performance: 49.513 ns/day, 0.485 hours/ns, 573.071 timesteps/s
99.9% CPU use with 1 MPI tasks x no OpenMP threads

MPI task timing breakdown:
Section |  min time  |  avg time  |  max time  |%varavg| %total
---------------------------------------------------------------
Pair    | 0.0014091  | 0.0014091  | 0.0014091  |   0.0 | 80.75
Neigh   | 0          | 0          | 0          |   0.0 |  0.00
Comm    | 5.0068e-05 | 5.0068e-05 | 5.0068e-05 |   0.0 |  2.87
Output  | 0.00023293 | 0.00023293 | 0.00023293 |   0.0 | 13.35
Modify  | 4.7207e-05 | 4.7207e-05 | 4.7207e-05 |   0.0 |  2.71
Other   |            | 5.722e-06  |            |       |  0.33

Nlocal:    240 ave 240 max 240 min
Histogram: 1 0 0 0 0 0 0 0 0 0
Nghost:    3000 ave 3000 max 3000 min
Histogram: 1 0 0 0 0 0 0 0 0 0
Neighs:    15892 ave 15892 max 15892 min
Histogram: 1 0 0 0 0 0 0 0 0 0

Total # of neighbors = 15892
Ave neighs/atom = 66.2167
Neighbor list builds = 0
Dangerous builds = 0

print "Pressf: ${pressf}"
Pressf: -286.378495150206
variable pdiff equal "pyy - v_pressf"
print "Pressf: ${pressf}"
Pressf: -286.378495150206
print "Pdiff: ${pdiff}"
Pdiff: 0.284953726508604
#if ${pdiff} > 10000 then "exit"
variable pressf1 equal pyy
variable pressf equal ${pressf1}
variable pressf equal -286.093541423697

next a
jump lmmps.06.inp loop

# Increase box bound and minimize again
#reset_timestep 0

change_box gblow y delta -${lydelta} 0 units box
change_box gblow y delta -0.123994003 0 units box
  orthogonal box = (0.000595477 -124.738 0.00034169) to (6.99346 124.614 4.03768)
change_box gbhigh y delta 0 ${lydelta} units box
change_box gbhigh y delta 0 0.123994003 units box
  orthogonal box = (0.000595477 -124.738 0.00034169) to (6.99346 124.738 4.03768)

minimize 1.0e-25 1.0e-25 1000 10000
WARNING: Using 'neigh_modify every 1 delay 0 check yes' setting during minimization (/home/conda/feedstock_root/build_artifacts/lammps_1526417570236/work/src/min.cpp:168)
Per MPI rank memory allocation (min/avg/max) = 7.229 | 7.229 | 7.229 Mbytes
Step Lx Ly Lz Press Pxx Pyy Pzz PotEng c_stress1 c_stress2 c_stress3 c_stress4 c_stress5 c_stress6 
    1297     6.992869    249.47593    4.0373366    -593.9951   -747.94489   -285.80915   -748.23124   -953.83939    5268034.6    2013052.7    5270051.4     -24521.9 -4.0725774e-08 5.9597204e-08 
    1300     6.992869    249.47593    4.0373366    -593.9951   -747.94489   -285.80915   -748.23124   -953.83939    5268034.6    2013052.7    5270051.4     -24521.9 -3.7127316e-08 3.3373016e-08 
    1310     6.992869    249.47593    4.0373366    -593.9951   -747.94489   -285.80915   -748.23124   -953.83939    5268034.6    2013052.7    5270051.4     -24521.9 -1.0763532e-08 4.9349083e-08 
Loop time of 0.0354159 on 1 procs for 13 steps with 240 atoms

100.0% CPU use with 1 MPI tasks x no OpenMP threads

Minimization stats:
  Stopping criterion = energy tolerance
  Energy initial, next-to-last, final = 
        -953.839387552     -953.839387552     -953.839387552
  Force two-norm initial, final = 5.3808e-13 4.12185e-13
  Force max component initial, final = 1.07803e-13 1.00531e-13
  Final line search alpha, max atom move = 1 1.00531e-13
  Iterations, force evaluations = 13 26

MPI task timing breakdown:
Section |  min time  |  avg time  |  max time  |%varavg| %total
---------------------------------------------------------------
Pair    | 0.032504   | 0.032504   | 0.032504   |   0.0 | 91.78
Neigh   | 0          | 0          | 0          |   0.0 |  0.00
Comm    | 0.0012586  | 0.0012586  | 0.0012586  |   0.0 |  3.55
Output  | 0.00022388 | 0.00022388 | 0.00022388 |   0.0 |  0.63
Modify  | 3.3379e-05 | 3.3379e-05 | 3.3379e-05 |   0.0 |  0.09
Other   |            | 0.001396   |            |       |  3.94

Nlocal:    240 ave 240 max 240 min
Histogram: 1 0 0 0 0 0 0 0 0 0
Nghost:    3000 ave 3000 max 3000 min
Histogram: 1 0 0 0 0 0 0 0 0 0
Neighs:    15892 ave 15892 max 15892 min
Histogram: 1 0 0 0 0 0 0 0 0 0

Total # of neighbors = 15892
Ave neighs/atom = 66.2167
Neighbor list builds = 0
Dangerous builds = 0

run 1
Per MPI rank memory allocation (min/avg/max) = 6.104 | 6.104 | 6.104 Mbytes
Step Lx Ly Lz Press Pxx Pyy Pzz PotEng c_stress1 c_stress2 c_stress3 c_stress4 c_stress5 c_stress6 
    1310     6.992869    249.47593    4.0373366    -593.9951   -747.94489   -285.80915   -748.23124   -953.83939    5268034.6    2013052.7    5270051.4     -24521.9 -1.3897627e-08 5.3112126e-08 
    1311     6.992869    249.47593    4.0373366    -593.9951   -747.94489   -285.80915   -748.23124   -953.83939    5268034.6    2013052.7    5270051.4     -24521.9 -1.3897627e-08 5.3112126e-08 
Loop time of 0.00176597 on 1 procs for 1 steps with 240 atoms

Performance: 48.925 ns/day, 0.491 hours/ns, 566.262 timesteps/s
100.0% CPU use with 1 MPI tasks x no OpenMP threads

MPI task timing breakdown:
Section |  min time  |  avg time  |  max time  |%varavg| %total
---------------------------------------------------------------
Pair    | 0.0014298  | 0.0014298  | 0.0014298  |   0.0 | 80.96
Neigh   | 0          | 0          | 0          |   0.0 |  0.00
Comm    | 5.0068e-05 | 5.0068e-05 | 5.0068e-05 |   0.0 |  2.84
Output  | 0.00022984 | 0.00022984 | 0.00022984 |   0.0 | 13.01
Modify  | 5.1022e-05 | 5.1022e-05 | 5.1022e-05 |   0.0 |  2.89
Other   |            | 5.245e-06  |            |       |  0.30

Nlocal:    240 ave 240 max 240 min
Histogram: 1 0 0 0 0 0 0 0 0 0
Nghost:    3000 ave 3000 max 3000 min
Histogram: 1 0 0 0 0 0 0 0 0 0
Neighs:    15892 ave 15892 max 15892 min
Histogram: 1 0 0 0 0 0 0 0 0 0

Total # of neighbors = 15892
Ave neighs/atom = 66.2167
Neighbor list builds = 0
Dangerous builds = 0

print "Pressf: ${pressf}"
Pressf: -286.093541423697
variable pdiff equal "pyy - v_pressf"
print "Pressf: ${pressf}"
Pressf: -286.093541423697
print "Pdiff: ${pdiff}"
Pdiff: 0.284387218060488
#if ${pdiff} > 10000 then "exit"
variable pressf1 equal pyy
variable pressf equal ${pressf1}
variable pressf equal -285.809154205637

next a
jump lmmps.06.inp loop

# Increase box bound and minimize again
#reset_timestep 0

change_box gblow y delta -${lydelta} 0 units box
change_box gblow y delta -0.123994003 0 units box
  orthogonal box = (0.000595477 -124.862 0.00034169) to (6.99346 124.738 4.03768)
change_box gbhigh y delta 0 ${lydelta} units box
change_box gbhigh y delta 0 0.123994003 units box
  orthogonal box = (0.000595477 -124.862 0.00034169) to (6.99346 124.862 4.03768)

minimize 1.0e-25 1.0e-25 1000 10000
WARNING: Using 'neigh_modify every 1 delay 0 check yes' setting during minimization (/home/conda/feedstock_root/build_artifacts/lammps_1526417570236/work/src/min.cpp:168)
Per MPI rank memory allocation (min/avg/max) = 7.229 | 7.229 | 7.229 Mbytes
Step Lx Ly Lz Press Pxx Pyy Pzz PotEng c_stress1 c_stress2 c_stress3 c_stress4 c_stress5 c_stress6 
    1311     6.992869    249.72392    4.0373366   -593.40523   -747.20215   -285.52533   -747.48821   -953.83939    5268034.6    2013052.7    5270051.4     -24521.9 -1.3635826e-08 5.336176e-08 
    1312     6.992869    249.72392    4.0373366   -593.40523   -747.20215   -285.52533   -747.48821   -953.83939    5268034.6    2013052.7    5270051.4     -24521.9 -5.9811459e-08 3.472165e-08 
Loop time of 0.00480795 on 1 procs for 1 steps with 240 atoms

100.0% CPU use with 1 MPI tasks x no OpenMP threads

Minimization stats:
  Stopping criterion = energy tolerance
  Energy initial, next-to-last, final = 
        -953.839387552     -953.839387552     -953.839387552
  Force two-norm initial, final = 4.13022e-13 2.55973e-13
  Force max component initial, final = 1.00586e-13 4.99323e-14
  Final line search alpha, max atom move = 1 4.99323e-14
  Iterations, force evaluations = 1 2

MPI task timing breakdown:
Section |  min time  |  avg time  |  max time  |%varavg| %total
---------------------------------------------------------------
Pair    | 0.003732   | 0.003732   | 0.003732   |   0.0 | 77.62
Neigh   | 0          | 0          | 0          |   0.0 |  0.00
Comm    | 0.000139   | 0.000139   | 0.000139   |   0.0 |  2.89
Output  | 0          | 0          | 0          |   0.0 |  0.00
Modify  | 4.2915e-06 | 4.2915e-06 | 4.2915e-06 |   0.0 |  0.09
Other   |            | 0.0009327  |            |       | 19.40

Nlocal:    240 ave 240 max 240 min
Histogram: 1 0 0 0 0 0 0 0 0 0
Nghost:    3000 ave 3000 max 3000 min
Histogram: 1 0 0 0 0 0 0 0 0 0
Neighs:    15892 ave 15892 max 15892 min
Histogram: 1 0 0 0 0 0 0 0 0 0

Total # of neighbors = 15892
Ave neighs/atom = 66.2167
Neighbor list builds = 0
Dangerous builds = 0

run 1
Per MPI rank memory allocation (min/avg/max) = 6.104 | 6.104 | 6.104 Mbytes
Step Lx Ly Lz Press Pxx Pyy Pzz PotEng c_stress1 c_stress2 c_stress3 c_stress4 c_stress5 c_stress6 
    1312     6.992869    249.72392    4.0373366   -593.40523   -747.20215   -285.52533   -747.48821   -953.83939    5268034.6    2013052.7    5270051.4     -24521.9 -6.0247678e-08 3.2828122e-08 
    1313     6.992869    249.72392    4.0373366   -593.40523   -747.20215   -285.52533   -747.48821   -953.83939    5268034.6    2013052.7    5270051.4     -24521.9 -6.0247678e-08 3.2828122e-08 
Loop time of 0.00162005 on 1 procs for 1 steps with 240 atoms

Performance: 53.332 ns/day, 0.450 hours/ns, 617.263 timesteps/s
100.0% CPU use with 1 MPI tasks x no OpenMP threads

MPI task timing breakdown:
Section |  min time  |  avg time  |  max time  |%varavg| %total
---------------------------------------------------------------
Pair    | 0.001323   | 0.001323   | 0.001323   |   0.0 | 81.66
Neigh   | 0          | 0          | 0          |   0.0 |  0.00
Comm    | 4.6968e-05 | 4.6968e-05 | 4.6968e-05 |   0.0 |  2.90
Output  | 0.00020409 | 0.00020409 | 0.00020409 |   0.0 | 12.60
Modify  | 4.1008e-05 | 4.1008e-05 | 4.1008e-05 |   0.0 |  2.53
Other   |            | 5.007e-06  |            |       |  0.31

Nlocal:    240 ave 240 max 240 min
Histogram: 1 0 0 0 0 0 0 0 0 0
Nghost:    3000 ave 3000 max 3000 min
Histogram: 1 0 0 0 0 0 0 0 0 0
Neighs:    15892 ave 15892 max 15892 min
Histogram: 1 0 0 0 0 0 0 0 0 0

Total # of neighbors = 15892
Ave neighs/atom = 66.2167
Neighbor list builds = 0
Dangerous builds = 0

print "Pressf: ${pressf}"
Pressf: -285.809154205637
variable pdiff equal "pyy - v_pressf"
print "Pressf: ${pressf}"
Pressf: -285.809154205637
print "Pdiff: ${pdiff}"
Pdiff: 0.283822397515564
#if ${pdiff} > 10000 then "exit"
variable pressf1 equal pyy
variable pressf equal ${pressf1}
variable pressf equal -285.525331808121

next a
jump lmmps.06.inp loop

# Increase box bound and minimize again
#reset_timestep 0

change_box gblow y delta -${lydelta} 0 units box
change_box gblow y delta -0.123994003 0 units box
  orthogonal box = (0.000595477 -124.986 0.00034169) to (6.99346 124.862 4.03768)
change_box gbhigh y delta 0 ${lydelta} units box
change_box gbhigh y delta 0 0.123994003 units box
  orthogonal box = (0.000595477 -124.986 0.00034169) to (6.99346 124.986 4.03768)

minimize 1.0e-25 1.0e-25 1000 10000
WARNING: Using 'neigh_modify every 1 delay 0 check yes' setting during minimization (/home/conda/feedstock_root/build_artifacts/lammps_1526417570236/work/src/min.cpp:168)
Per MPI rank memory allocation (min/avg/max) = 7.229 | 7.229 | 7.229 Mbytes
Step Lx Ly Lz Press Pxx Pyy Pzz PotEng c_stress1 c_stress2 c_stress3 c_stress4 c_stress5 c_stress6 
    1313     6.992869    249.97191    4.0373366   -592.81654   -746.46088   -285.24207   -746.74666   -953.83939    5268034.6    2013052.7    5270051.4     -24521.9 -6.0247678e-08 3.2828122e-08 
    1315     6.992869    249.97191    4.0373366   -592.81654   -746.46088   -285.24207   -746.74666   -953.83939    5268034.6    2013052.7    5270051.4     -24521.9 -6.8340692e-08 3.9924015e-08 
Loop time of 0.00720978 on 1 procs for 2 steps with 240 atoms

100.0% CPU use with 1 MPI tasks x no OpenMP threads

Minimization stats:
  Stopping criterion = energy tolerance
  Energy initial, next-to-last, final = 
        -953.839387552     -953.839387552     -953.839387552
  Force two-norm initial, final = 2.56177e-13 2.6753e-13
  Force max component initial, final = 4.99323e-14 6.11296e-14
  Final line search alpha, max atom move = 1 6.11296e-14
  Iterations, force evaluations = 2 4

MPI task timing breakdown:
Section |  min time  |  avg time  |  max time  |%varavg| %total
---------------------------------------------------------------
Pair    | 0.0060141  | 0.0060141  | 0.0060141  |   0.0 | 83.42
Neigh   | 0          | 0          | 0          |   0.0 |  0.00
Comm    | 0.00022721 | 0.00022721 | 0.00022721 |   0.0 |  3.15
Output  | 0          | 0          | 0          |   0.0 |  0.00
Modify  | 6.4373e-06 | 6.4373e-06 | 6.4373e-06 |   0.0 |  0.09
Other   |            | 0.000962   |            |       | 13.34

Nlocal:    240 ave 240 max 240 min
Histogram: 1 0 0 0 0 0 0 0 0 0
Nghost:    3000 ave 3000 max 3000 min
Histogram: 1 0 0 0 0 0 0 0 0 0
Neighs:    15892 ave 15892 max 15892 min
Histogram: 1 0 0 0 0 0 0 0 0 0

Total # of neighbors = 15892
Ave neighs/atom = 66.2167
Neighbor list builds = 0
Dangerous builds = 0

run 1
Per MPI rank memory allocation (min/avg/max) = 6.104 | 6.104 | 6.104 Mbytes
Step Lx Ly Lz Press Pxx Pyy Pzz PotEng c_stress1 c_stress2 c_stress3 c_stress4 c_stress5 c_stress6 
    1315     6.992869    249.97191    4.0373366   -592.81654   -746.46088   -285.24207   -746.74666   -953.83939    5268034.6    2013052.7    5270051.4     -24521.9 -6.3056094e-08 3.7193485e-08 
    1316     6.992869    249.97191    4.0373366   -592.81654   -746.46088   -285.24207   -746.74666   -953.83939    5268034.6    2013052.7    5270051.4     -24521.9 -6.3056094e-08 3.7193485e-08 
Loop time of 0.00165915 on 1 procs for 1 steps with 240 atoms

Performance: 52.075 ns/day, 0.461 hours/ns, 602.716 timesteps/s
100.1% CPU use with 1 MPI tasks x no OpenMP threads

MPI task timing breakdown:
Section |  min time  |  avg time  |  max time  |%varavg| %total
---------------------------------------------------------------
Pair    | 0.0013602  | 0.0013602  | 0.0013602  |   0.0 | 81.98
Neigh   | 0          | 0          | 0          |   0.0 |  0.00
Comm    | 4.8161e-05 | 4.8161e-05 | 4.8161e-05 |   0.0 |  2.90
Output  | 0.00020313 | 0.00020313 | 0.00020313 |   0.0 | 12.24
Modify  | 4.2915e-05 | 4.2915e-05 | 4.2915e-05 |   0.0 |  2.59
Other   |            | 4.768e-06  |            |       |  0.29

Nlocal:    240 ave 240 max 240 min
Histogram: 1 0 0 0 0 0 0 0 0 0
Nghost:    3000 ave 3000 max 3000 min
Histogram: 1 0 0 0 0 0 0 0 0 0
Neighs:    15892 ave 15892 max 15892 min
Histogram: 1 0 0 0 0 0 0 0 0 0

Total # of neighbors = 15892
Ave neighs/atom = 66.2167
Neighbor list builds = 0
Dangerous builds = 0

print "Pressf: ${pressf}"
Pressf: -285.525331808121
variable pdiff equal "pyy - v_pressf"
print "Pressf: ${pressf}"
Pressf: -285.525331808121
print "Pdiff: ${pdiff}"
Pdiff: 0.283259257751354
#if ${pdiff} > 10000 then "exit"
variable pressf1 equal pyy
variable pressf equal ${pressf1}
variable pressf equal -285.24207255037

next a
jump lmmps.06.inp loop

# Increase box bound and minimize again
#reset_timestep 0

change_box gblow y delta -${lydelta} 0 units box
change_box gblow y delta -0.123994003 0 units box
  orthogonal box = (0.000595477 -125.11 0.00034169) to (6.99346 124.986 4.03768)
change_box gbhigh y delta 0 ${lydelta} units box
change_box gbhigh y delta 0 0.123994003 units box
  orthogonal box = (0.000595477 -125.11 0.00034169) to (6.99346 125.11 4.03768)

minimize 1.0e-25 1.0e-25 1000 10000
WARNING: Using 'neigh_modify every 1 delay 0 check yes' setting during minimization (/home/conda/feedstock_root/build_artifacts/lammps_1526417570236/work/src/min.cpp:168)
Per MPI rank memory allocation (min/avg/max) = 7.229 | 7.229 | 7.229 Mbytes
Step Lx Ly Lz Press Pxx Pyy Pzz PotEng c_stress1 c_stress2 c_stress3 c_stress4 c_stress5 c_stress6 
    1316     6.992869     250.2199    4.0373366   -592.22901   -745.72107   -284.95937   -746.00657   -953.83939    5268034.6    2013052.7    5270051.4     -24521.9 -6.3056094e-08 3.7193485e-08 
    1320     6.992869     250.2199    4.0373366   -592.22901   -745.72107   -284.95937   -746.00657   -953.83939    5268034.6    2013052.7    5270051.4     -24521.9 -4.5327667e-08 3.8194666e-08 
    1330     6.992869     250.2199    4.0373366   -592.22901   -745.72107   -284.95937   -746.00657   -953.83939    5268034.6    2013052.7    5270051.4     -24521.9 -2.7811885e-08 2.5366535e-08 
    1340     6.992869     250.2199    4.0373366   -592.22901   -745.72107   -284.95937   -746.00657   -953.83939    5268034.6    2013052.7    5270051.4     -24521.9 -6.4910999e-08 4.5959397e-08 
    1350     6.992869     250.2199    4.0373366   -592.22901   -745.72107   -284.95937   -746.00657   -953.83939    5268034.6    2013052.7    5270051.4     -24521.9 -4.0989794e-08 6.2475572e-08 
    1358     6.992869     250.2199    4.0373366   -592.22901   -745.72107   -284.95937   -746.00657   -953.83939    5268034.6    2013052.7    5270051.4     -24521.9 -2.7462166e-08 1.5031235e-08 
Loop time of 0.107499 on 1 procs for 42 steps with 240 atoms

100.0% CPU use with 1 MPI tasks x no OpenMP threads

Minimization stats:
  Stopping criterion = energy tolerance
  Energy initial, next-to-last, final = 
        -953.839387552     -953.839387552     -953.839387552
  Force two-norm initial, final = 2.668e-13 3.18173e-13
  Force max component initial, final = 6.11296e-14 6.44138e-14
  Final line search alpha, max atom move = 1 6.44138e-14
  Iterations, force evaluations = 42 84

MPI task timing breakdown:
Section |  min time  |  avg time  |  max time  |%varavg| %total
---------------------------------------------------------------
Pair    | 0.10001    | 0.10001    | 0.10001    |   0.0 | 93.04
Neigh   | 0          | 0          | 0          |   0.0 |  0.00
Comm    | 0.0041833  | 0.0041833  | 0.0041833  |   0.0 |  3.89
Output  | 0.00092196 | 0.00092196 | 0.00092196 |   0.0 |  0.86
Modify  | 0.00011086 | 0.00011086 | 0.00011086 |   0.0 |  0.10
Other   |            | 0.002271   |            |       |  2.11

Nlocal:    240 ave 240 max 240 min
Histogram: 1 0 0 0 0 0 0 0 0 0
Nghost:    3000 ave 3000 max 3000 min
Histogram: 1 0 0 0 0 0 0 0 0 0
Neighs:    15892 ave 15892 max 15892 min
Histogram: 1 0 0 0 0 0 0 0 0 0

Total # of neighbors = 15892
Ave neighs/atom = 66.2167
Neighbor list builds = 0
Dangerous builds = 0

run 1
Per MPI rank memory allocation (min/avg/max) = 6.104 | 6.104 | 6.104 Mbytes
Step Lx Ly Lz Press Pxx Pyy Pzz PotEng c_stress1 c_stress2 c_stress3 c_stress4 c_stress5 c_stress6 
    1358     6.992869     250.2199    4.0373366   -592.22901   -745.72107   -284.95937   -746.00657   -953.83939    5268034.6    2013052.7    5270051.4     -24521.9 -2.6606932e-08 1.549951e-08 
    1359     6.992869     250.2199    4.0373366   -592.22901   -745.72107   -284.95937   -746.00657   -953.83939    5268034.6    2013052.7    5270051.4     -24521.9 -2.6606932e-08 1.549951e-08 
Loop time of 0.00175881 on 1 procs for 1 steps with 240 atoms

Performance: 49.124 ns/day, 0.489 hours/ns, 568.565 timesteps/s
100.0% CPU use with 1 MPI tasks x no OpenMP threads

MPI task timing breakdown:
Section |  min time  |  avg time  |  max time  |%varavg| %total
---------------------------------------------------------------
Pair    | 0.0014322  | 0.0014322  | 0.0014322  |   0.0 | 81.43
Neigh   | 0          | 0          | 0          |   0.0 |  0.00
Comm    | 6.1989e-05 | 6.1989e-05 | 6.1989e-05 |   0.0 |  3.52
Output  | 0.00021505 | 0.00021505 | 0.00021505 |   0.0 | 12.23
Modify  | 4.5776e-05 | 4.5776e-05 | 4.5776e-05 |   0.0 |  2.60
Other   |            | 3.815e-06  |            |       |  0.22

Nlocal:    240 ave 240 max 240 min
Histogram: 1 0 0 0 0 0 0 0 0 0
Nghost:    3000 ave 3000 max 3000 min
Histogram: 1 0 0 0 0 0 0 0 0 0
Neighs:    15892 ave 15892 max 15892 min
Histogram: 1 0 0 0 0 0 0 0 0 0

Total # of neighbors = 15892
Ave neighs/atom = 66.2167
Neighbor list builds = 0
Dangerous builds = 0

print "Pressf: ${pressf}"
Pressf: -285.24207255037
variable pdiff equal "pyy - v_pressf"
print "Pressf: ${pressf}"
Pressf: -285.24207255037
print "Pdiff: ${pdiff}"
Pdiff: 0.282697792379508
#if ${pdiff} > 10000 then "exit"
variable pressf1 equal pyy
variable pressf equal ${pressf1}
variable pressf equal -284.95937475799

next a
jump lmmps.06.inp loop

# Increase box bound and minimize again
#reset_timestep 0

change_box gblow y delta -${lydelta} 0 units box
change_box gblow y delta -0.123994003 0 units box
  orthogonal box = (0.000595477 -125.234 0.00034169) to (6.99346 125.11 4.03768)
change_box gbhigh y delta 0 ${lydelta} units box
change_box gbhigh y delta 0 0.123994003 units box
  orthogonal box = (0.000595477 -125.234 0.00034169) to (6.99346 125.234 4.03768)

minimize 1.0e-25 1.0e-25 1000 10000
WARNING: Using 'neigh_modify every 1 delay 0 check yes' setting during minimization (/home/conda/feedstock_root/build_artifacts/lammps_1526417570236/work/src/min.cpp:168)
Per MPI rank memory allocation (min/avg/max) = 7.229 | 7.229 | 7.229 Mbytes
Step Lx Ly Lz Press Pxx Pyy Pzz PotEng c_stress1 c_stress2 c_stress3 c_stress4 c_stress5 c_stress6 
    1359     6.992869    250.46789    4.0373366   -591.64264   -744.98274   -284.67724   -745.26795   -953.83939    5268034.6    2013052.7    5270051.4     -24521.9 -2.5627695e-08 1.5518965e-08 
    1360     6.992869    250.46789    4.0373366   -591.64264   -744.98274   -284.67724   -745.26795   -953.83939    5268034.6    2013052.7    5270051.4     -24521.9 -1.6701488e-08 5.1811817e-08 
    1370     6.992869    250.46789    4.0373366   -591.64264   -744.98274   -284.67724   -745.26795   -953.83939    5268034.6    2013052.7    5270051.4     -24521.9 -3.1185643e-08 3.441674e-08 
    1374     6.992869    250.46789    4.0373366   -591.64264   -744.98274   -284.67724   -745.26795   -953.83939    5268034.6    2013052.7    5270051.4     -24521.9 -4.9231864e-08 2.5884273e-08 
Loop time of 0.0402598 on 1 procs for 15 steps with 240 atoms

100.0% CPU use with 1 MPI tasks x no OpenMP threads

Minimization stats:
  Stopping criterion = energy tolerance
  Energy initial, next-to-last, final = 
        -953.839387552     -953.839387552     -953.839387552
  Force two-norm initial, final = 3.1826e-13 2.04669e-13
  Force max component initial, final = 6.43399e-14 3.71786e-14
  Final line search alpha, max atom move = 1 3.71786e-14
  Iterations, force evaluations = 15 30

MPI task timing breakdown:
Section |  min time  |  avg time  |  max time  |%varavg| %total
---------------------------------------------------------------
Pair    | 0.036871   | 0.036871   | 0.036871   |   0.0 | 91.58
Neigh   | 0          | 0          | 0          |   0.0 |  0.00
Comm    | 0.0014815  | 0.0014815  | 0.0014815  |   0.0 |  3.68
Output  | 0.00046706 | 0.00046706 | 0.00046706 |   0.0 |  1.16
Modify  | 3.4332e-05 | 3.4332e-05 | 3.4332e-05 |   0.0 |  0.09
Other   |            | 0.001405   |            |       |  3.49

Nlocal:    240 ave 240 max 240 min
Histogram: 1 0 0 0 0 0 0 0 0 0
Nghost:    3000 ave 3000 max 3000 min
Histogram: 1 0 0 0 0 0 0 0 0 0
Neighs:    15892 ave 15892 max 15892 min
Histogram: 1 0 0 0 0 0 0 0 0 0

Total # of neighbors = 15892
Ave neighs/atom = 66.2167
Neighbor list builds = 0
Dangerous builds = 0

run 1
Per MPI rank memory allocation (min/avg/max) = 6.104 | 6.104 | 6.104 Mbytes
Step Lx Ly Lz Press Pxx Pyy Pzz PotEng c_stress1 c_stress2 c_stress3 c_stress4 c_stress5 c_stress6 
    1374     6.992869    250.46789    4.0373366   -591.64264   -744.98274   -284.67724   -745.26795   -953.83939    5268034.6    2013052.7    5270051.4     -24521.9 -4.91464e-08 2.5905466e-08 
    1375     6.992869    250.46789    4.0373366   -591.64264   -744.98274   -284.67724   -745.26795   -953.83939    5268034.6    2013052.7    5270051.4     -24521.9 -4.91464e-08 2.5905466e-08 
Loop time of 0.00173187 on 1 procs for 1 steps with 240 atoms

Performance: 49.888 ns/day, 0.481 hours/ns, 577.410 timesteps/s
100.1% CPU use with 1 MPI tasks x no OpenMP threads

MPI task timing breakdown:
Section |  min time  |  avg time  |  max time  |%varavg| %total
---------------------------------------------------------------
Pair    | 0.0014319  | 0.0014319  | 0.0014319  |   0.0 | 82.68
Neigh   | 0          | 0          | 0          |   0.0 |  0.00
Comm    | 4.6968e-05 | 4.6968e-05 | 4.6968e-05 |   0.0 |  2.71
Output  | 0.00020385 | 0.00020385 | 0.00020385 |   0.0 | 11.77
Modify  | 4.4107e-05 | 4.4107e-05 | 4.4107e-05 |   0.0 |  2.55
Other   |            | 5.007e-06  |            |       |  0.29

Nlocal:    240 ave 240 max 240 min
Histogram: 1 0 0 0 0 0 0 0 0 0
Nghost:    3000 ave 3000 max 3000 min
Histogram: 1 0 0 0 0 0 0 0 0 0
Neighs:    15892 ave 15892 max 15892 min
Histogram: 1 0 0 0 0 0 0 0 0 0

Total # of neighbors = 15892
Ave neighs/atom = 66.2167
Neighbor list builds = 0
Dangerous builds = 0

print "Pressf: ${pressf}"
Pressf: -284.95937475799
variable pdiff equal "pyy - v_pressf"
print "Pressf: ${pressf}"
Pressf: -284.95937475799
print "Pdiff: ${pdiff}"
Pdiff: 0.282137994877928
#if ${pdiff} > 10000 then "exit"
variable pressf1 equal pyy
variable pressf equal ${pressf1}
variable pressf equal -284.677236763112

next a
jump lmmps.06.inp loop

# Increase box bound and minimize again
#reset_timestep 0

change_box gblow y delta -${lydelta} 0 units box
change_box gblow y delta -0.123994003 0 units box
  orthogonal box = (0.000595477 -125.358 0.00034169) to (6.99346 125.234 4.03768)
change_box gbhigh y delta 0 ${lydelta} units box
change_box gbhigh y delta 0 0.123994003 units box
  orthogonal box = (0.000595477 -125.358 0.00034169) to (6.99346 125.358 4.03768)

minimize 1.0e-25 1.0e-25 1000 10000
WARNING: Using 'neigh_modify every 1 delay 0 check yes' setting during minimization (/home/conda/feedstock_root/build_artifacts/lammps_1526417570236/work/src/min.cpp:168)
Per MPI rank memory allocation (min/avg/max) = 7.229 | 7.229 | 7.229 Mbytes
[...]
Loop time of 0.00193191 on 1 procs for 1 steps with 240 atoms

Performance: 44.723 ns/day, 0.537 hours/ns, 517.624 timesteps/s
100.1% CPU use with 1 MPI tasks x no OpenMP threads

MPI task timing breakdown:
Section |  min time  |  avg time  |  max time  |%varavg| %total
---------------------------------------------------------------
Pair    | 0.0016098  | 0.0016098  | 0.0016098  |   0.0 | 83.33
Neigh   | 0          | 0          | 0          |   0.0 |  0.00
Comm    | 4.8161e-05 | 4.8161e-05 | 4.8161e-05 |   0.0 |  2.49
Output  | 0.00021911 | 0.00021911 | 0.00021911 |   0.0 | 11.34
Modify  | 4.9829e-05 | 4.9829e-05 | 4.9829e-05 |   0.0 |  2.58
Other   |            | 5.007e-06  |            |       |  0.26

Nlocal:    240 ave 240 max 240 min
Histogram: 1 0 0 0 0 0 0 0 0 0
Nghost:    3000 ave 3000 max 3000 min
Histogram: 1 0 0 0 0 0 0 0 0 0
Neighs:    15892 ave 15892 max 15892 min
Histogram: 1 0 0 0 0 0 0 0 0 0

Total # of neighbors = 15892
Ave neighs/atom = 66.2167
Neighbor list builds = 0
Dangerous builds = 0

print "Pressf: ${pressf}"
Pressf: -262.579003772388
variable pdiff equal "pyy - v_pressf"
print "Pressf: ${pressf}"
Pressf: -262.579003772388
print "Pdiff: ${pdiff}"
Pdiff: 0.239579383006969
#if ${pdiff} > 10000 then "exit"
variable pressf1 equal pyy
variable pressf equal ${pressf1}
variable pressf equal -262.339424389381

next a
jump lmmps.06.inp loop

# Increase box bound and minimize again
#reset_timestep 0

change_box gblow y delta -${lydelta} 0 units box
change_box gblow y delta -0.123994003 0 units box
  orthogonal box = (0.000595477 -136.021 0.00034169) to (6.99346 135.897 4.03768)
change_box gbhigh y delta 0 ${lydelta} units box
change_box gbhigh y delta 0 0.123994003 units box
  orthogonal box = (0.000595477 -136.021 0.00034169) to (6.99346 136.021 4.03768)

minimize 1.0e-25 1.0e-25 1000 10000
WARNING: Using 'neigh_modify every 1 delay 0 check yes' setting during minimization (/home/conda/feedstock_root/build_artifacts/lammps_1526417570236/work/src/min.cpp:168)
Per MPI rank memory allocation (min/avg/max) = 7.23 | 7.23 | 7.23 Mbytes
Step Lx Ly Lz Press Pxx Pyy Pzz PotEng c_stress1 c_stress2 c_stress3 c_stress4 c_stress5 c_stress6 
    1825     6.992869    272.04284    4.0373366   -544.72112   -685.90024   -262.10028   -686.16284   -953.83939    5268034.6    2013052.7    5270051.4     -24521.9 -8.0897044e-08 7.3902771e-08 
    1830     6.992869    272.04284    4.0373366   -544.72112   -685.90024   -262.10028   -686.16284   -953.83939    5268034.6    2013052.7    5270051.4     -24521.9 -5.9207241e-08 5.166175e-08 
    1832     6.992869    272.04284    4.0373366   -544.72112   -685.90024   -262.10028   -686.16284   -953.83939    5268034.6    2013052.7    5270051.4     -24521.9 -6.4548449e-08 6.3326748e-08 
Loop time of 0.0215631 on 1 procs for 7 steps with 240 atoms

100.0% CPU use with 1 MPI tasks x no OpenMP threads

Minimization stats:
  Stopping criterion = energy tolerance
  Energy initial, next-to-last, final = 
        -953.839387552     -953.839387552     -953.839387552
  Force two-norm initial, final = 1.81023e-13 1.85096e-13
  Force max component initial, final = 3.4181e-14 3.62835e-14
  Final line search alpha, max atom move = 1 3.62835e-14
  Iterations, force evaluations = 7 14

MPI task timing breakdown:
Section |  min time  |  avg time  |  max time  |%varavg| %total
---------------------------------------------------------------
Pair    | 0.019225   | 0.019225   | 0.019225   |   0.0 | 89.16
Neigh   | 0          | 0          | 0          |   0.0 |  0.00
Comm    | 0.00070047 | 0.00070047 | 0.00070047 |   0.0 |  3.25
Output  | 0.00026488 | 0.00026488 | 0.00026488 |   0.0 |  1.23
Modify  | 2.2411e-05 | 2.2411e-05 | 2.2411e-05 |   0.0 |  0.10
Other   |            | 0.00135    |            |       |  6.26

Nlocal:    240 ave 240 max 240 min
Histogram: 1 0 0 0 0 0 0 0 0 0
Nghost:    3000 ave 3000 max 3000 min
Histogram: 1 0 0 0 0 0 0 0 0 0
Neighs:    15892 ave 15892 max 15892 min
Histogram: 1 0 0 0 0 0 0 0 0 0

Total # of neighbors = 15892
Ave neighs/atom = 66.2167
Neighbor list builds = 0
Dangerous builds = 0

run 1
Per MPI rank memory allocation (min/avg/max) = 6.105 | 6.105 | 6.105 Mbytes
Step Lx Ly Lz Press Pxx Pyy Pzz PotEng c_stress1 c_stress2 c_stress3 c_stress4 c_stress5 c_stress6 
    1832     6.992869    272.04284    4.0373366   -544.72112   -685.90024   -262.10028   -686.16284   -953.83939    5268034.6    2013052.7    5270051.4     -24521.9 -6.4511777e-08 6.3042313e-08 
    1833     6.992869    272.04284    4.0373366   -544.72112   -685.90024   -262.10028   -686.16284   -953.83939    5268034.6    2013052.7    5270051.4     -24521.9 -6.4511777e-08 6.3042313e-08 
Loop time of 0.0019052 on 1 procs for 1 steps with 240 atoms

Performance: 45.350 ns/day, 0.529 hours/ns, 524.878 timesteps/s
100.0% CPU use with 1 MPI tasks x no OpenMP threads

MPI task timing breakdown:
Section |  min time  |  avg time  |  max time  |%varavg| %total
---------------------------------------------------------------
Pair    | 0.0015812  | 0.0015812  | 0.0015812  |   0.0 | 82.99
Neigh   | 0          | 0          | 0          |   0.0 |  0.00
Comm    | 4.9829e-05 | 4.9829e-05 | 4.9829e-05 |   0.0 |  2.62
Output  | 0.00021791 | 0.00021791 | 0.00021791 |   0.0 | 11.44
Modify  | 5.0068e-05 | 5.0068e-05 | 5.0068e-05 |   0.0 |  2.63
Other   |            | 6.199e-06  |            |       |  0.33

Nlocal:    240 ave 240 max 240 min
Histogram: 1 0 0 0 0 0 0 0 0 0
Nghost:    3000 ave 3000 max 3000 min
Histogram: 1 0 0 0 0 0 0 0 0 0
Neighs:    15892 ave 15892 max 15892 min
Histogram: 1 0 0 0 0 0 0 0 0 0

Total # of neighbors = 15892
Ave neighs/atom = 66.2167
Neighbor list builds = 0
Dangerous builds = 0

print "Pressf: ${pressf}"
Pressf: -262.339424389381
variable pdiff equal "pyy - v_pressf"
print "Pressf: ${pressf}"
Pressf: -262.339424389381
print "Pdiff: ${pdiff}"
Pdiff: 0.239142592897053
#if ${pdiff} > 10000 then "exit"
variable pressf1 equal pyy
variable pressf equal ${pressf1}
variable pressf equal -262.100281796484

next a
jump lmmps.06.inp loop

# Increase box bound and minimize again
#reset_timestep 0

change_box gblow y delta -${lydelta} 0 units box
change_box gblow y delta -0.123994003 0 units box
  orthogonal box = (0.000595477 -136.145 0.00034169) to (6.99346 136.021 4.03768)
change_box gbhigh y delta 0 ${lydelta} units box
change_box gbhigh y delta 0 0.123994003 units box
  orthogonal box = (0.000595477 -136.145 0.00034169) to (6.99346 136.145 4.03768)

minimize 1.0e-25 1.0e-25 1000 10000
WARNING: Using 'neigh_modify every 1 delay 0 check yes' setting during minimization (/home/conda/feedstock_root/build_artifacts/lammps_1526417570236/work/src/min.cpp:168)
Per MPI rank memory allocation (min/avg/max) = 7.23 | 7.23 | 7.23 Mbytes
Step Lx Ly Lz Press Pxx Pyy Pzz PotEng c_stress1 c_stress2 c_stress3 c_stress4 c_stress5 c_stress6 
    1833     6.992869    272.29083    4.0373366   -544.22502   -685.27556   -261.86157   -685.53791   -953.83939    5268034.6    2013052.7    5270051.4     -24521.9 -6.4511777e-08 6.3042313e-08 
    1840     6.992869    272.29083    4.0373366   -544.22502   -685.27556   -261.86157   -685.53791   -953.83939    5268034.6    2013052.7    5270051.4     -24521.9 -6.1562154e-08 5.9887561e-08 
    1844     6.992869    272.29083    4.0373366   -544.22502   -685.27556   -261.86157   -685.53791   -953.83939    5268034.6    2013052.7    5270051.4     -24521.9 -6.4273042e-08 6.6760699e-08 
Loop time of 0.0304658 on 1 procs for 11 steps with 240 atoms

100.0% CPU use with 1 MPI tasks x no OpenMP threads

Minimization stats:
  Stopping criterion = energy tolerance
  Energy initial, next-to-last, final = 
        -953.839387552     -953.839387552     -953.839387552
  Force two-norm initial, final = 1.85481e-13 1.82973e-13
  Force max component initial, final = 3.80737e-14 3.44863e-14
  Final line search alpha, max atom move = 1 3.44863e-14
  Iterations, force evaluations = 11 22

MPI task timing breakdown:
Section |  min time  |  avg time  |  max time  |%varavg| %total
---------------------------------------------------------------
Pair    | 0.027816   | 0.027816   | 0.027816   |   0.0 | 91.30
Neigh   | 0          | 0          | 0          |   0.0 |  0.00
Comm    | 0.0010912  | 0.0010912  | 0.0010912  |   0.0 |  3.58
Output  | 0.00024009 | 0.00024009 | 0.00024009 |   0.0 |  0.79
Modify  | 2.6226e-05 | 2.6226e-05 | 2.6226e-05 |   0.0 |  0.09
Other   |            | 0.001292   |            |       |  4.24

Nlocal:    240 ave 240 max 240 min
Histogram: 1 0 0 0 0 0 0 0 0 0
Nghost:    3000 ave 3000 max 3000 min
Histogram: 1 0 0 0 0 0 0 0 0 0
Neighs:    15892 ave 15892 max 15892 min
Histogram: 1 0 0 0 0 0 0 0 0 0

Total # of neighbors = 15892
Ave neighs/atom = 66.2167
Neighbor list builds = 0
Dangerous builds = 0

run 1
Per MPI rank memory allocation (min/avg/max) = 6.105 | 6.105 | 6.105 Mbytes
Step Lx Ly Lz Press Pxx Pyy Pzz PotEng c_stress1 c_stress2 c_stress3 c_stress4 c_stress5 c_stress6 
    1844     6.992869    272.29083    4.0373366   -544.22502   -685.27556   -261.86157   -685.53791   -953.83939    5268034.6    2013052.7    5270051.4     -24521.9 -6.4634356e-08 6.5958688e-08 
    1845     6.992869    272.29083    4.0373366   -544.22502   -685.27556   -261.86157   -685.53791   -953.83939    5268034.6    2013052.7    5270051.4     -24521.9 -6.4634356e-08 6.5958688e-08 
Loop time of 0.00171208 on 1 procs for 1 steps with 240 atoms

Performance: 50.465 ns/day, 0.476 hours/ns, 584.084 timesteps/s
100.1% CPU use with 1 MPI tasks x no OpenMP threads

MPI task timing breakdown:
Section |  min time  |  avg time  |  max time  |%varavg| %total
---------------------------------------------------------------
Pair    | 0.0014141  | 0.0014141  | 0.0014141  |   0.0 | 82.59
Neigh   | 0          | 0          | 0          |   0.0 |  0.00
Comm    | 4.6968e-05 | 4.6968e-05 | 4.6968e-05 |   0.0 |  2.74
Output  | 0.00020313 | 0.00020313 | 0.00020313 |   0.0 | 11.86
Modify  | 4.2915e-05 | 4.2915e-05 | 4.2915e-05 |   0.0 |  2.51
Other   |            | 5.007e-06  |            |       |  0.29

Nlocal:    240 ave 240 max 240 min
Histogram: 1 0 0 0 0 0 0 0 0 0
Nghost:    3000 ave 3000 max 3000 min
Histogram: 1 0 0 0 0 0 0 0 0 0
Neighs:    15892 ave 15892 max 15892 min
Histogram: 1 0 0 0 0 0 0 0 0 0

Total # of neighbors = 15892
Ave neighs/atom = 66.2167
Neighbor list builds = 0
Dangerous builds = 0

print "Pressf: ${pressf}"
Pressf: -262.100281796484
variable pdiff equal "pyy - v_pressf"
print "Pressf: ${pressf}"
Pressf: -262.100281796484
print "Pdiff: ${pdiff}"
Pdiff: 0.238706996169412
#if ${pdiff} > 10000 then "exit"
variable pressf1 equal pyy
variable pressf equal ${pressf1}
variable pressf equal -261.861574800315

next a
jump lmmps.06.inp loop

# Increase box bound and minimize again
#reset_timestep 0

change_box gblow y delta -${lydelta} 0 units box
change_box gblow y delta -0.123994003 0 units box
  orthogonal box = (0.000595477 -136.269 0.00034169) to (6.99346 136.145 4.03768)
change_box gbhigh y delta 0 ${lydelta} units box
change_box gbhigh y delta 0 0.123994003 units box
  orthogonal box = (0.000595477 -136.269 0.00034169) to (6.99346 136.269 4.03768)

minimize 1.0e-25 1.0e-25 1000 10000
WARNING: Using 'neigh_modify every 1 delay 0 check yes' setting during minimization (/home/conda/feedstock_root/build_artifacts/lammps_1526417570236/work/src/min.cpp:168)
Per MPI rank memory allocation (min/avg/max) = 7.23 | 7.23 | 7.23 Mbytes
Step Lx Ly Lz Press Pxx Pyy Pzz PotEng c_stress1 c_stress2 c_stress3 c_stress4 c_stress5 c_stress6 
    1845     6.992869    272.53882    4.0373366   -543.72982   -684.65201    -261.6233   -684.91413   -953.83939    5268034.6    2013052.7    5270051.4     -24521.9 -6.2736365e-08 6.3712632e-08 
    1846     6.992869    272.53882    4.0373366   -543.72982   -684.65201    -261.6233   -684.91413   -953.83939    5268034.6    2013052.7    5270051.4     -24521.9 -2.1826733e-08 4.4425584e-08 
Loop time of 0.00512695 on 1 procs for 1 steps with 240 atoms

100.0% CPU use with 1 MPI tasks x no OpenMP threads

Minimization stats:
  Stopping criterion = energy tolerance
  Energy initial, next-to-last, final = 
        -953.839387552     -953.839387552     -953.839387552
  Force two-norm initial, final = 1.8314e-13 1.84765e-13
  Force max component initial, final = 3.47569e-14 3.6228e-14
  Final line search alpha, max atom move = 1 3.6228e-14
  Iterations, force evaluations = 1 2

MPI task timing breakdown:
Section |  min time  |  avg time  |  max time  |%varavg| %total
---------------------------------------------------------------
Pair    | 0.0039909  | 0.0039909  | 0.0039909  |   0.0 | 77.84
Neigh   | 0          | 0          | 0          |   0.0 |  0.00
Comm    | 0.00015497 | 0.00015497 | 0.00015497 |   0.0 |  3.02
Output  | 0          | 0          | 0          |   0.0 |  0.00
Modify  | 4.2915e-06 | 4.2915e-06 | 4.2915e-06 |   0.0 |  0.08
Other   |            | 0.0009768  |            |       | 19.05

Nlocal:    240 ave 240 max 240 min
Histogram: 1 0 0 0 0 0 0 0 0 0
Nghost:    3000 ave 3000 max 3000 min
Histogram: 1 0 0 0 0 0 0 0 0 0
Neighs:    15892 ave 15892 max 15892 min
Histogram: 1 0 0 0 0 0 0 0 0 0

Total # of neighbors = 15892
Ave neighs/atom = 66.2167
Neighbor list builds = 0
Dangerous builds = 0

run 1
Per MPI rank memory allocation (min/avg/max) = 6.105 | 6.105 | 6.105 Mbytes
Step Lx Ly Lz Press Pxx Pyy Pzz PotEng c_stress1 c_stress2 c_stress3 c_stress4 c_stress5 c_stress6 
    1846     6.992869    272.53882    4.0373366   -543.72982   -684.65201    -261.6233   -684.91413   -953.83939    5268034.6    2013052.7    5270051.4     -24521.9 -2.6282734e-08 4.7466969e-08 
    1847     6.992869    272.53882    4.0373366   -543.72982   -684.65201    -261.6233   -684.91413   -953.83939    5268034.6    2013052.7    5270051.4     -24521.9 -2.6282734e-08 4.7466969e-08 
Loop time of 0.00170517 on 1 procs for 1 steps with 240 atoms

Performance: 50.669 ns/day, 0.474 hours/ns, 586.452 timesteps/s
100.0% CPU use with 1 MPI tasks x no OpenMP threads

MPI task timing breakdown:
Section |  min time  |  avg time  |  max time  |%varavg| %total
---------------------------------------------------------------
Pair    | 0.0013778  | 0.0013778  | 0.0013778  |   0.0 | 80.80
Neigh   | 0          | 0          | 0          |   0.0 |  0.00
Comm    | 5.0068e-05 | 5.0068e-05 | 5.0068e-05 |   0.0 |  2.94
Output  | 0.00022817 | 0.00022817 | 0.00022817 |   0.0 | 13.38
Modify  | 4.3869e-05 | 4.3869e-05 | 4.3869e-05 |   0.0 |  2.57
Other   |            | 5.245e-06  |            |       |  0.31

Nlocal:    240 ave 240 max 240 min
Histogram: 1 0 0 0 0 0 0 0 0 0
Nghost:    3000 ave 3000 max 3000 min
Histogram: 1 0 0 0 0 0 0 0 0 0
Neighs:    15892 ave 15892 max 15892 min
Histogram: 1 0 0 0 0 0 0 0 0 0

Total # of neighbors = 15892
Ave neighs/atom = 66.2167
Neighbor list builds = 0
Dangerous builds = 0

print "Pressf: ${pressf}"
Pressf: -261.861574800315
variable pdiff equal "pyy - v_pressf"
print "Pressf: ${pressf}"
Pressf: -261.861574800315
print "Pdiff: ${pdiff}"
Pdiff: 0.238272588541577
#if ${pdiff} > 10000 then "exit"
variable pressf1 equal pyy
variable pressf equal ${pressf1}
variable pressf equal -261.623302211773

next a
jump lmmps.06.inp loop

# Increase box bound and minimize again
#reset_timestep 0

change_box gblow y delta -${lydelta} 0 units box
change_box gblow y delta -0.123994003 0 units box
  orthogonal box = (0.000595477 -136.393 0.00034169) to (6.99346 136.269 4.03768)
change_box gbhigh y delta 0 ${lydelta} units box
change_box gbhigh y delta 0 0.123994003 units box
  orthogonal box = (0.000595477 -136.393 0.00034169) to (6.99346 136.393 4.03768)

minimize 1.0e-25 1.0e-25 1000 10000
WARNING: Using 'neigh_modify every 1 delay 0 check yes' setting during minimization (/home/conda/feedstock_root/build_artifacts/lammps_1526417570236/work/src/min.cpp:168)
Per MPI rank memory allocation (min/avg/max) = 7.23 | 7.23 | 7.23 Mbytes
Step Lx Ly Lz Press Pxx Pyy Pzz PotEng c_stress1 c_stress2 c_stress3 c_stress4 c_stress5 c_stress6 
    1847     6.992869    272.78681    4.0373366   -543.23552    -684.0296   -261.38546   -684.29148   -953.83939    5268034.6    2013052.7    5270051.4     -24521.9 -2.6473617e-08 4.741642e-08 
    1850     6.992869    272.78681    4.0373366   -543.23552    -684.0296   -261.38546   -684.29148   -953.83939    5268034.6    2013052.7    5270051.4     -24521.9 -4.2156441e-08 4.9459264e-08 
Loop time of 0.009938 on 1 procs for 3 steps with 240 atoms

100.0% CPU use with 1 MPI tasks x no OpenMP threads

Minimization stats:
  Stopping criterion = energy tolerance
  Energy initial, next-to-last, final = 
        -953.839387552     -953.839387552     -953.839387552
  Force two-norm initial, final = 1.84737e-13 1.82689e-13
  Force max component initial, final = 3.54439e-14 3.57631e-14
  Final line search alpha, max atom move = 1 3.57631e-14
  Iterations, force evaluations = 3 6

MPI task timing breakdown:
Section |  min time  |  avg time  |  max time  |%varavg| %total
---------------------------------------------------------------
Pair    | 0.008538   | 0.008538   | 0.008538   |   0.0 | 85.91
Neigh   | 0          | 0          | 0          |   0.0 |  0.00
Comm    | 0.00032306 | 0.00032306 | 0.00032306 |   0.0 |  3.25
Output  | 0          | 0          | 0          |   0.0 |  0.00
Modify  | 8.1062e-06 | 8.1062e-06 | 8.1062e-06 |   0.0 |  0.08
Other   |            | 0.001069   |            |       | 10.75

Nlocal:    240 ave 240 max 240 min
Histogram: 1 0 0 0 0 0 0 0 0 0
Nghost:    3000 ave 3000 max 3000 min
Histogram: 1 0 0 0 0 0 0 0 0 0
Neighs:    15892 ave 15892 max 15892 min
Histogram: 1 0 0 0 0 0 0 0 0 0

Total # of neighbors = 15892
Ave neighs/atom = 66.2167
Neighbor list builds = 0
Dangerous builds = 0

run 1
Per MPI rank memory allocation (min/avg/max) = 6.105 | 6.105 | 6.105 Mbytes
Step Lx Ly Lz Press Pxx Pyy Pzz PotEng c_stress1 c_stress2 c_stress3 c_stress4 c_stress5 c_stress6 
    1850     6.992869    272.78681    4.0373366   -543.23552    -684.0296   -261.38546   -684.29148   -953.83939    5268034.6    2013052.7    5270051.4     -24521.9 -4.2476646e-08 4.958885e-08 
    1851     6.992869    272.78681    4.0373366   -543.23552    -684.0296   -261.38546   -684.29148   -953.83939    5268034.6    2013052.7    5270051.4     -24521.9 -4.2476646e-08 4.958885e-08 
Loop time of 0.00167203 on 1 procs for 1 steps with 240 atoms

Performance: 51.674 ns/day, 0.464 hours/ns, 598.076 timesteps/s
100.1% CPU use with 1 MPI tasks x no OpenMP threads

MPI task timing breakdown:
Section |  min time  |  avg time  |  max time  |%varavg| %total
---------------------------------------------------------------
Pair    | 0.0013721  | 0.0013721  | 0.0013721  |   0.0 | 82.06
Neigh   | 0          | 0          | 0          |   0.0 |  0.00
Comm    | 4.6968e-05 | 4.6968e-05 | 4.6968e-05 |   0.0 |  2.81
Output  | 0.00020504 | 0.00020504 | 0.00020504 |   0.0 | 12.26
Modify  | 4.4107e-05 | 4.4107e-05 | 4.4107e-05 |   0.0 |  2.64
Other   |            | 3.815e-06  |            |       |  0.23

Nlocal:    240 ave 240 max 240 min
Histogram: 1 0 0 0 0 0 0 0 0 0
Nghost:    3000 ave 3000 max 3000 min
Histogram: 1 0 0 0 0 0 0 0 0 0
Neighs:    15892 ave 15892 max 15892 min
Histogram: 1 0 0 0 0 0 0 0 0 0

Total # of neighbors = 15892
Ave neighs/atom = 66.2167
Neighbor list builds = 0
Dangerous builds = 0

print "Pressf: ${pressf}"
Pressf: -261.623302211773
variable pdiff equal "pyy - v_pressf"
print "Pressf: ${pressf}"
Pressf: -261.623302211773
print "Pdiff: ${pdiff}"
Pdiff: 0.237839365596017
#if ${pdiff} > 10000 then "exit"
variable pressf1 equal pyy
variable pressf equal ${pressf1}
variable pressf equal -261.385462846177

next a
jump lmmps.06.inp loop

unfix equil1

######################################
# SIMULATION DONE
print "All done"
All done
Total wall time: 0:00:13
