LAMMPS (22 Aug 2018)
##
dimension 3
boundary p p p
atom_style full
units metal
#kspace_style pppm/cg 1.0e-4
#kspace_modify pressure/scalar no
dielectric 2.0
bond_style harmonic
angle_style harmonic

neighbor 2.0 bin
neigh_modify delay 0 every 1 check yes page 500000 one 50000

region box1 block -40.0 40.0 -40.0 40.0 -40.0 40.0
create_box 4 box1 bond/types 2 extra/bond/per/atom 2 angle/types 1 extra/angle/per/atom 1 extra/special/per/atom 10
Created orthogonal box = (-40 -40 -40) to (40 40 40)
  1 by 1 by 1 MPI processor grid

molecule cat_ion cation_mol.txt
Read molecule cat_ion:
  3 atoms with max type 4
  2 bonds with max type 2
  1 angles with max type 1
  0 dihedrals with max type 0
  0 impropers with max type 0

mass    1  86.8 #anion
mass    2  67.0 #ring
mass    3  15.0 #methyl
mass    4  29.0 #ethyl

create_atoms 1 random 100 1340 box1
Created 100 atoms
  Time spent = 0.00129294 secs
create_atoms 0 random 100 2345 box1 mol cat_ion 1234
Created 300 atoms
  Time spent = 0.000100851 secs
#create_atoms 1 single  10.0 0.0 0.0
#create_atoms 0 single 0.0 0.0 0.0 mol cat_ion 1234
group anion type 1
100 atoms in group anion
group ring type 2
100 atoms in group ring
group methyl type 3
100 atoms in group methyl
group ethyl type 4
100 atoms in group ethyl

bond_coeff 1 207.729 2.689748837
bond_coeff 2 207.729 3.04931147
angle_coeff 1 207.729 144.1868904


## -- INTERATOMIC POTENTIALS -- #
pair_style nm/cut 30.0
################### properties to change
## values from easy begin

pair_coeff 1 1 2.55775855 5.77468231 10.177908113392 12.0000
pair_coeff 1 2 3.34765931 6.26892741 10.177908113392 12.0000
pair_coeff 1 3 2.00556578 4.28154794 10.177908113392 12.0000
pair_coeff 1 4 2.80927754 6.79832446 10.177908113392 12.0000
pair_coeff 2 2 4.38150147 6.80547410 10.177908113392 12.0000
pair_coeff 2 3 2.62493539 4.64799825 10.177908113392 12.0000
pair_coeff 2 4 3.67685374 7.38018133 10.177908113392 12.0000
pair_coeff 3 3 1.57258553 3.17448680 10.177908113392 12.0000
pair_coeff 3 4 2.20278450 5.04051142 10.177908113392 12.0000
pair_coeff 4 4 3.08552981 8.00342131 10.177908113392 12.0000

## values from easy end


#create_bonds single/bond 1 2 3
#create_bonds single/bond 2 2 4
#create_bonds single/angle 1 3 2 4

set type 1 charge -1.0
  100 settings made for charge
#set type 2 charge  0.408675
#set type 3 charge  0.317505
#set type 4 charge  0.273820

########################################

write_data solid.data pair ij
Neighbor list info ...
  update every 1 steps, delay 0 steps, check yes
  max neighbors/atom: 50000, page size: 500000
  master list distance cutoff = 32
  ghost atom cutoff = 32
  binsize = 16, bins = 5 5 5
  1 neighbor lists, perpetual/occasional/extra = 1 0 0
  (1) pair nm/cut, perpetual
      attributes: half, newton on
      pair build: half/bin/newton
      stencil: half/bin/3d/newton
      bin: standard

thermo_style	custom step temp pe ke ebond press density

##################################
variable    T equal 400
variable    V equal vol
variable    dt equal 0.00005
variable    p equal 400     # correlation length
variable    s equal 5       # sample interval
variable    d equal $p*$s   # dump interval
variable    d equal 400*$s   
variable    d equal 400*5   

# convert from LAMMPS real units to SI

variable    kB equal 1.3806504e-23    # [J/K/** Boltzmann
variable    bar2Pa equal 100000.0
variable    A2m equal 1.0e-10
variable    ps2s equal 1.0e-12
variable    convert equal ${bar2Pa}*${bar2Pa}*${ps2s}*${A2m}*${A2m}*${A2m}
variable    convert equal 100000*${bar2Pa}*${ps2s}*${A2m}*${A2m}*${A2m}
variable    convert equal 100000*100000*${ps2s}*${A2m}*${A2m}*${A2m}
variable    convert equal 100000*100000*1e-12*${A2m}*${A2m}*${A2m}
variable    convert equal 100000*100000*1e-12*1e-10*${A2m}*${A2m}
variable    convert equal 100000*100000*1e-12*1e-10*1e-10*${A2m}
variable    convert equal 100000*100000*1e-12*1e-10*1e-10*1e-10
timestep    ${dt}
timestep    5e-05
variable    tdamp equal ${dt}*10.
variable    tdamp equal 5e-05*10.
variable    pdamp equal ${dt}*100.
variable    pdamp equal 5e-05*100.
thermo      $d
thermo      2000

variable    ILdens equal density
variable    ILstep equal step
variable    ILtime equal time*1.0e-12 #from ps to s
variable    ILtemp equal temp
variable    ILpe equal pe
variable    ILke equal ke
variable    ILpr equal press

##################################
fix         333 all print 2000 "${ILstep} ${ILtime} ${ILdens} ${ILtemp} ${ILpr} ${ILpe} ${ILke}" file density.dat screen no
dump        1 all dcd $d minim.dcd
dump        1 all dcd 2000 minim.dcd
dump        2 all custom $d dump.atom id mass type x y z
dump        2 all custom 2000 dump.atom id mass type x y z

##################################
##################################
#  Minimize initial
##################################

velocity     all create $T 987654321 mom yes rot yes dist gaussian
velocity     all create 400 987654321 mom yes rot yes dist gaussian
minimize 1.e-4 1.0e-6 1000 10000
Per MPI rank memory allocation (min/avg/max) = 11.18 | 11.18 | 11.18 Mbytes
Step Temp PotEng KinEng E_bond Press Density 
       0          400 3.7805329e+11    20.629919    1.4574399 4.7573404e+12  0.064151289 
    1000          400   -3469.2111    20.629919    2.9172703   -780.26914  0.064151289 
Loop time of 9.44363 on 1 procs for 1000 steps with 400 atoms

100.0% CPU use with 1 MPI tasks x no OpenMP threads

Minimization stats:
  Stopping criterion = max iterations
  Energy initial, next-to-last, final = 
          378053291431     -3467.69775091     -3469.21110809
  Force two-norm initial, final = 6.56861e+12 44.2015
  Force max component initial, final = 2.90062e+12 13.8323
  Final line search alpha, max atom move = 0.00233662 0.0323208
  Iterations, force evaluations = 1000 1724

MPI task timing breakdown:
Section |  min time  |  avg time  |  max time  |%varavg| %total
---------------------------------------------------------------
Pair    | 9.3422     | 9.3422     | 9.3422     |   0.0 | 98.93
Bond    | 0.023264   | 0.023264   | 0.023264   |   0.0 |  0.25
Neigh   | 0.045381   | 0.045381   | 0.045381   |   0.0 |  0.48
Comm    | 0.017187   | 0.017187   | 0.017187   |   0.0 |  0.18
Output  | 2.718e-05  | 2.718e-05  | 2.718e-05  |   0.0 |  0.00
Modify  | 0          | 0          | 0          |   0.0 |  0.00
Other   |            | 0.01557    |            |       |  0.16

Nlocal:    400 ave 400 max 400 min
Histogram: 1 0 0 0 0 0 0 0 0 0
Nghost:    1836 ave 1836 max 1836 min
Histogram: 1 0 0 0 0 0 0 0 0 0
Neighs:    20203 ave 20203 max 20203 min
Histogram: 1 0 0 0 0 0 0 0 0 0

Total # of neighbors = 20203
Ave neighs/atom = 50.5075
Ave special neighs/atom = 1.5
Neighbor list builds = 64
Dangerous builds = 0

reset_timestep 0
fix 1 all npt temp $T $T ${tdamp} iso 1.0 1.0 ${pdamp}
fix 1 all npt temp 400 $T ${tdamp} iso 1.0 1.0 ${pdamp}
fix 1 all npt temp 400 400 ${tdamp} iso 1.0 1.0 ${pdamp}
fix 1 all npt temp 400 400 0.0005 iso 1.0 1.0 ${pdamp}
fix 1 all npt temp 400 400 0.0005 iso 1.0 1.0 0.005
run             200000
Per MPI rank memory allocation (min/avg/max) = 10.05 | 10.05 | 10.05 Mbytes
Step Temp PotEng KinEng E_bond Press Density 
       0          400   -3469.2111    20.629919    2.9172703   -780.26914  0.064151289 
    2000    388.98034   -3510.2352    20.061583     3.638055    782.22625   0.06878995 
    4000    395.39695   -3562.3842    20.392518    3.1553838    1025.3259  0.073832464 
    6000    404.09047   -3624.9902    20.840884    2.0003218   -389.73779   0.07779713 
    8000    388.84273   -3678.4192    20.054485    3.0695573    998.96907  0.082638447 
   10000    392.32631   -3731.2037     20.23415    2.9633253    777.27513  0.088084557 
   12000    395.46339   -3806.1399    20.395944     2.577833    362.50907  0.095999646 
   14000    379.89795   -3882.5276     19.59316    2.1343881   -697.96617   0.10459726 
   16000    421.42099    -3949.568    21.734702    2.4587782    524.17708   0.11264455 
   18000    403.39172   -4027.8327    20.804847    2.4076783   -65.706149   0.12247124 
   20000    403.87649   -4107.6481    20.829848    2.1415016   -1236.1445   0.13488785 
   22000    416.95316   -4194.4598    21.504275    2.6363355      226.452   0.15034376 
   24000    404.26316   -4286.8329    20.849791    2.1734414    -4395.872   0.16380759 
   26000    380.43183   -4389.8169    19.620695     2.677157   -1247.7467   0.18094653 
   28000     388.3788    -4517.883    20.030558    3.0824437   -653.08018   0.19988192 
   30000    406.74666   -4636.1017    20.977877    2.8939065   -1279.9766   0.21936262 
   32000    387.57004   -4753.6371    19.988847    2.9239456   -1331.8324    0.2393779 
   34000    416.92148    -4875.619    21.502641    2.6667125   -4116.6209   0.25950972 
   36000    369.16015   -5015.6133     19.03936    3.4295389   -481.51691   0.28053755 
   38000     394.6477   -5151.3088    20.353875     3.319706   -1531.0868   0.30002743 
   40000     400.0745    -5285.063    20.633761    4.0666111    2962.5187   0.31989693 
   42000    382.89618   -5421.7549    19.747793    2.8614241    -6133.889   0.33753149 
   44000    396.76302   -5566.9156    20.462973    3.4926684   -3972.4936   0.35919768 
   46000    408.52647   -5723.2322     21.06967     5.801706    7964.7888   0.38258165 
   48000    406.72655   -5887.0299    20.976839    3.8237538   -6140.3457   0.40059915 
   50000    376.94064    -6020.497    19.440637     4.691284    1907.0462   0.41939721 
   52000    403.93063   -6145.5345    20.832641    4.7080218    913.92558   0.43588262 
   54000    394.15054   -6273.3241    20.328235    4.0625585   -9683.0815   0.45037391 
   56000    430.48612   -6406.3035    22.202234    4.5011283   -1741.8013   0.46578668 
   58000    413.56752   -6503.7398    21.329661    4.1150479   -7615.7105   0.47659764 
   60000    398.67282   -6574.3057     20.56147    5.7360068    8924.1469   0.48623108 
   62000    385.08886   -6644.8064     19.86088    4.5826803   -3436.8464   0.49136868 
   64000    407.77226   -6700.3527    21.030772    5.8334972    6709.9361    0.4987447 
   66000    387.23709   -6741.4148    19.971675    7.3759861    13801.303   0.50452363 
   68000     404.2663   -6760.9872    20.849953    5.2718731   -3768.0648   0.50578381 
   70000    382.75191   -6788.6417    19.740352     5.483435     -4127.52   0.50928958 
   72000    417.94244   -6808.1416    21.555297    5.6478744    1428.4224   0.51363914 
   74000    409.91888   -6824.0483    21.141484    6.3787625    7963.1409   0.51724827 
   76000    402.67235    -6838.801    20.767745    5.0197383   -8178.7242   0.51728863 
   78000    393.15973    -6860.379    20.277134    4.6563974   -8601.9686   0.51949029 
   80000    426.36771   -6877.7928    21.989829    6.5018217     11586.22   0.52554216 
   82000    426.02358   -6897.2752     21.97208    4.3487544    -12499.44   0.52335381 
   84000    430.58052   -6917.6787    22.207103    4.9813684    1782.4858   0.52624476 
   86000    395.51273    -6939.038    20.398489    7.4597401     19195.75   0.52954882 
   88000    405.19105   -6963.7084    20.897646    5.0789869   -5317.4996   0.52871141 
   90000    410.51495    -6983.878    21.172225    5.3888307    -2047.951   0.52994311 
   92000     437.9852   -7000.6367    22.588998    8.6326777    19521.849   0.53285266 
   94000    381.30275   -7019.8258    19.665612    6.9822582    9695.0112   0.53186542 
   96000    410.80056   -7033.7381    21.186956    5.8409712   -1150.0809   0.53163823 
   98000    407.13911   -7044.4968    20.998117    4.9076124   -12997.208   0.53292644 
  100000    419.56889   -7051.1397    21.639181    5.6572769    464.83049   0.53599035 
  102000    380.66621   -7063.3456    19.632783    4.8464395   -23270.165   0.53497783 
  104000    438.72671   -7089.5433    22.627242    5.8532241   -2951.7754   0.53891027 
  106000    369.87642    -7117.425    19.076302    5.8849901   -1611.4721   0.54146762 
  108000    382.77424   -7134.0417    19.741504    7.0480948    10496.214   0.54435534 
  110000    403.92515   -7144.8723    20.832358    4.9315951   -5253.1276   0.54244145 
  112000    380.61178   -7151.3395    19.629976    7.1602752     13388.05   0.54487718 
  114000    402.54894   -7153.5498     20.76138    6.4145003    8539.7511   0.54378862 
  116000    434.00983   -7159.3897    22.383969     5.161361   -4264.7483   0.54393866 
  118000    403.72195   -7157.3635    20.821878    5.4237377   -10.619244   0.54493586 
  120000    394.13982   -7163.9995    20.327681    6.0468877    5882.7737    0.5459904 
  122000    410.82723    -7161.928    21.188332    4.5449352   -12210.278   0.54421959 
  124000    392.67764   -7170.3095     20.25227    5.3289775    1328.9587    0.5461493 
  126000      418.514   -7173.3649    21.584775    7.0613469    12833.775    0.5472725 
  128000    384.90057   -7179.4152    19.851169    4.6667887   -20776.669   0.54384446 
  130000    430.93822   -7181.4194    22.225551    4.7137809   -17459.451   0.54517296 
  132000    375.13028   -7182.3791    19.347268     6.545874    7226.8594   0.54709719 
  134000    373.85359   -7184.9588    19.281423    5.6612353     258.2733   0.54627295 
  136000    400.99561    -7186.916    20.681267    6.4371813    9920.4228    0.5476783 
  138000    397.28194   -7194.3535    20.489736    7.1920798    14492.619   0.54919831 
  140000    419.15236   -7196.2831    21.617698    6.8716497    9198.8281    0.5477633 
  142000     423.1295   -7191.2344    21.822818    8.9034801    23834.079     0.550346 
  144000     407.7774   -7199.3759    21.031037    4.9696757    -14671.26   0.54632262 
  146000    393.23122   -7200.9524    20.280821    5.0860963   -11730.727   0.54796144 
  148000    408.25439   -7206.7569    21.055638    6.5743732    9788.6364   0.55213083 
  150000    418.73827   -7209.3442    21.596342     8.086463    13637.184   0.55209847 
  152000    388.14238   -7212.7153    20.018365    7.5798056    13789.503   0.55233496 
  154000    380.36431   -7211.2586    19.617212    5.1831876   -12255.618   0.54900502 
  156000    408.62817   -7212.9832    21.074915     5.883025   -1990.1008   0.55074333 
  158000    402.06708   -7210.0562    20.736528    4.9073278   -22628.233    0.5479912 
  160000    393.03744   -7215.6105    20.270826    5.8305134   -1137.1069   0.55128532 
  162000    397.04705   -7213.7997    20.477621    5.2021518   -12729.686   0.54956205 
  164000    388.94711   -7213.8233    20.059869    5.1465831   -13318.153   0.54985907 
  166000    415.77133   -7212.5269    21.443323    5.1728271   -18534.764   0.54878481 
  168000     410.1397   -7217.2173    21.152872    5.2773741   -18838.104   0.54977401 
  170000    399.57809   -7226.9717    20.608159    5.6307942   -6014.4354   0.55155384 
  172000    424.64614   -7230.4284    21.901039    5.5984418   -9049.1297   0.55141414 
  174000    397.96732   -7228.9812    20.525084    6.5913611    773.98243   0.55274422 
  176000    402.14963    -7231.355    20.740786    8.2975431    18479.362   0.55522208 
  178000    419.04299   -7231.6164    21.612058     5.467227   -6965.8001   0.55175913 
  180000    389.12681   -7235.0241    20.069137    6.2275665   -305.06337   0.55240703 
  182000    377.94336   -7230.8958    19.492352     8.552175    15780.392   0.55419415 
  184000    380.41829   -7232.6515    19.619996    6.4043357   -1058.2252   0.55319964 
  186000    391.26514   -7228.6105     20.17942    8.6040071    19923.905   0.55555833 
  188000    411.96735   -7234.9122    21.247133    5.4132702   -8282.2518   0.55241465 
  190000    396.40087   -7233.1402    20.444295     9.168373    22909.999   0.55527756 
  192000    384.85745   -7232.6739    19.848945    7.1007975    10141.599   0.55376578 
  194000    399.05224   -7231.8509    20.581039    5.7287909    -4430.485   0.55233644 
  196000    388.30864    -7233.002     20.02694    7.5744265    13161.877   0.55389467 
  198000    396.64493   -7232.5671    20.456882    7.9685824    14095.539    0.5545812 
  200000    421.11551   -7234.5029    21.718947    6.5261713    3254.7824   0.55380375 
Loop time of 8568 on 1 procs for 200000 steps with 400 atoms

Performance: 0.101 ns/day, 238.000 hours/ns, 23.343 timesteps/s
96.6% CPU use with 1 MPI tasks x no OpenMP threads

MPI task timing breakdown:
Section |  min time  |  avg time  |  max time  |%varavg| %total
---------------------------------------------------------------
Pair    | 8551.5     | 8551.5     | 8551.5     |   0.0 | 99.81
Bond    | 3.3527     | 3.3527     | 3.3527     |   0.0 |  0.04
Neigh   | 0.8571     | 0.8571     | 0.8571     |   0.0 |  0.01
Comm    | 6.283      | 6.283      | 6.283      |   0.0 |  0.07
Output  | 0.087851   | 0.087851   | 0.087851   |   0.0 |  0.00
Modify  | 4.1485     | 4.1485     | 4.1485     |   0.0 |  0.05
Other   |            | 1.776      |            |       |  0.02

Nlocal:    400 ave 400 max 400 min
Histogram: 1 0 0 0 0 0 0 0 0 0
Nghost:    7033 ave 7033 max 7033 min
Histogram: 1 0 0 0 0 0 0 0 0 0
Neighs:    184889 ave 184889 max 184889 min
Histogram: 1 0 0 0 0 0 0 0 0 0

Total # of neighbors = 184889
Ave neighs/atom = 462.223
Ave special neighs/atom = 1.5
Neighbor list builds = 212
Dangerous builds = 0
unfix 1
unfix 333
fix 1 all nvt temp $T $T ${tdamp}
fix 1 all nvt temp 400 $T ${tdamp}
fix 1 all nvt temp 400 400 ${tdamp}
fix 1 all nvt temp 400 400 0.0005

reset_timestep 0
variable     pxy equal pxy
variable     pxz equal pxz
variable     pyz equal pyz
fix          SS all ave/correlate $s $p $d              v_pxy v_pxz v_pyz type auto file S0St.dat ave running
fix          SS all ave/correlate 5 $p $d              v_pxy v_pxz v_pyz type auto file S0St.dat ave running
fix          SS all ave/correlate 5 400 $d              v_pxy v_pxz v_pyz type auto file S0St.dat ave running
fix          SS all ave/correlate 5 400 2000              v_pxy v_pxz v_pyz type auto file S0St.dat ave running
variable     scale equal ${convert}/(${kB}*$T)*$V*$s*${dt}
variable     scale equal 1e-32/(${kB}*$T)*$V*$s*${dt}
variable     scale equal 1e-32/(1.3806504e-23*$T)*$V*$s*${dt}
variable     scale equal 1e-32/(1.3806504e-23*400)*$V*$s*${dt}
variable     scale equal 1e-32/(1.3806504e-23*400)*59308.842834844*$s*${dt}
variable     scale equal 1e-32/(1.3806504e-23*400)*59308.842834844*5*${dt}
variable     scale equal 1e-32/(1.3806504e-23*400)*59308.842834844*5*5e-05
variable     v11 equal trap(f_SS[3])*${scale}
variable     v11 equal trap(f_SS[3])*2.68482352750396e-11
variable     v22 equal trap(f_SS[4])*${scale}
variable     v22 equal trap(f_SS[4])*2.68482352750396e-11
variable     v33 equal trap(f_SS[5])*${scale}
variable     v33 equal trap(f_SS[5])*2.68482352750396e-11
variable     v equal (v_v11+v_v22+v_v33)/3.0
fix          333 all print $d "${ILstep} ${ILtime} ${ILdens} ${ILtemp} ${ILpr} ${ILpe} ${v}" file visco.dat screen no
fix          333 all print 2000 "${ILstep} ${ILtime} ${ILdens} ${ILtemp} ${ILpr} ${ILpe} ${v}" file visco.dat screen no
thermo_style custom step temp pe press v_pxy v_pxz v_pyz v_v11 v_v22 v_v33
run          8000000
Per MPI rank memory allocation (min/avg/max) = 10.41 | 10.41 | 10.41 Mbytes
Step Temp PotEng Press v_pxy v_pxz v_pyz v_v11 v_v22 v_v33 
       0    421.11551   -7234.5029    3254.7824    388.33513   -186.27359    11473.901 2.024413e-06 4.6578802e-07 0.0017672906 
    2000    407.04324   -7232.2471    6012.2959    655.67356    925.60681    12593.476 0.00055133225 -0.0026407551    1.7536528 
    4000    427.53803   -7232.5118    6094.6362     1730.273   -3058.6126    11600.172 0.0089363207 0.0043288999    1.7413385 
    6000    406.55696   -7234.7409    3559.5182   -263.34722    494.23711    13817.863  0.002429636  0.017374565    1.6408555 
    8000    401.30009   -7232.2507    2547.2215    27.828871   -1091.1134    13213.264 0.0021052976  0.015555155    1.6856334 
   10000    386.56733   -7233.6804    4883.7235   -589.36996   -3026.1123    9208.6716 0.0016050477  0.019898502      1.63547 
   12000    409.51266     -7231.34    6657.9548   -189.28305   -1340.1167    8884.4308 0.0014193877  0.020365583    1.5797631 
   14000    425.23805   -7236.0542    4233.3707    1031.7804   -807.77491    12346.504 0.0006552341  0.020333752    1.5719456 
   16000    395.29951   -7233.5548     3088.589    297.67958   -1612.7006     12567.97 0.0008139679  0.022002495    1.5750758 
   18000     388.6473   -7231.8745    6323.2989   -1520.5029    -2679.949    11492.761 0.00071408175  0.022217391    1.5834301 
   20000    399.43032   -7233.4476    2268.9572    -2163.845    -3085.444    13489.238 0.0006506396  0.027799884    1.5877951 
   22000    410.75147   -7235.1722    3204.7348    519.33381   -3530.0267    11387.217 0.0010424773  0.032487908    1.6053627 
   24000    403.72663   -7232.1363    4213.8518    985.82407    -2356.702    8826.0808 0.0010433913  0.036449058    1.6072442 
   26000    393.45067   -7235.6949     2559.024   -1289.6629   -2251.0802    10141.487 0.0015433955  0.035069985    1.5756345 
   28000    411.52662   -7234.2783    5403.8357   -1261.8825   -1561.0016    12482.565 0.0018665645  0.034313465    1.5704521 
   30000    397.42316   -7233.0367    4454.1869    3279.6855   -3071.6506    10642.664  0.001995939   0.03350106    1.5752982 
   32000    445.26635   -7233.9102    4526.1549   -1144.1741    325.35833    12771.807 0.0030112843  0.034058734    1.5685973 
   34000    429.61978   -7233.9865    2893.9812   -142.07431   -1535.3124    15376.527 0.0027334469  0.034073433    1.5885902 
   36000     409.8396   -7232.7674    2205.9817    672.22611      14.5835    13426.154 0.0025680738  0.034162187     1.608368 
   38000    379.53444   -7231.7593     777.6586   -1922.8805   -1823.4857    9055.7594 0.0025144278  0.034000014    1.6007285 
   40000    417.91033    -7234.812    4532.9252     264.6804    166.11488    13283.621 0.0026798312  0.033992454    1.5803156 
   42000    383.23104    -7234.468    5830.5922    1080.3627   -816.25713    11034.251 0.0026258258  0.032861388    1.5947397 
   44000    388.87228   -7233.0318     4585.594    1416.3332   -2562.3198    9387.7571 0.0028032519  0.031959097    1.5975313 
   46000     408.6175   -7234.2806    3379.9614     1100.211   -1591.3685    12271.406 0.0029885873  0.034803368    1.5953649 
   48000    411.59589   -7233.1614    3333.4703   -1897.8849   -4132.7226     14393.28 0.0030167057  0.035637445    1.5960027 
   50000     425.5238    -7234.079    3793.1581    398.67057   -2163.6871     11047.72 0.0036496103  0.035397212    1.5914551 
   52000    403.47959   -7233.5134    3385.5689     889.6389   -2578.3792    13067.667 0.0034664674  0.036237917     1.589866 
   54000    388.87833   -7234.0363    1518.2222    1534.3785   -2532.6661     14220.44 0.0044012334  0.035962639    1.6071956 
   56000    433.51182   -7234.4963    3321.3481    957.96101   -2395.6325    13204.935 0.0040803992  0.034892316    1.6082273 
   58000    406.75103   -7234.2439    3858.2918     767.6621   -3203.5766     11889.55 0.0038632029  0.034881736    1.6053194 
   60000    381.54397    -7233.435    879.57531   -1765.7939   -2226.4515    12560.921 0.0037002165  0.035033836    1.6044552 
   62000    386.53184   -7231.9132    1851.1531   -488.87717   -1504.9127    11597.761 0.0035655855  0.035264926    1.6059763 
   64000    380.59632   -7231.8087    4028.7929   -1435.6111   -696.68217     11257.35 0.0034887996  0.034786311     1.598339 
   66000     419.1835   -7233.2884    2376.0012    126.03144   -2874.2367    14196.328 0.0034021973  0.034866648    1.5975821 
   68000    412.26088   -7233.3067    605.58935   -255.17803   -439.72428    10938.295  0.003449679  0.033930841    1.6059326 
   70000    433.53444   -7232.7317     2405.292   -149.04516   -1730.7413    13433.767 0.0034606963  0.033091702    1.6120723 
   72000    401.80974    -7235.607    2651.2779    857.42654   -4329.2144    11162.351 0.0033952965  0.033457503    1.6104503 
   74000    391.51751   -7233.9952    2296.9356    2268.3311   -508.09227     12842.77  0.003291537  0.033859471    1.6119464 
   76000    426.38323   -7234.2734    3485.1593    642.66684   -1900.2655    11564.202 0.0031853881  0.033394973    1.6130625 
   78000    392.00914   -7233.3143    4524.9829    507.62637   -3650.1894    11912.916 0.0030906865  0.034629081    1.6073421 
   80000    413.75596   -7234.1752    4607.0155     1108.351   -22.804755    13578.657 0.0030572735  0.034811515    1.6069738 
   82000    407.53648   -7233.2778    4038.1963    1070.2213   -1837.1527    12481.712 0.0029248319  0.034233347    1.6152125 
   84000    403.66233    -7233.731    2535.1997    2832.0275    -2512.994    11475.154 0.0029597164  0.033860509    1.6156847 
   86000    424.47494   -7234.1949     2613.954    1388.3955   -3264.7124    11750.829 0.0029063286  0.034671151    1.6166133 
   88000    390.72182   -7232.8332    2437.2518    439.10599    -1375.323    9612.9902 0.0028452914   0.03537151    1.6156019 
   90000    390.10903   -7234.6266    5423.6061    469.05383   -893.84286    14588.943 0.0027776476  0.035808114    1.6092043 
   92000    411.40152   -7233.9847     3052.311   -180.56398   -2881.4144    13789.301 0.0027149135  0.035327946    1.6088574 
   94000    396.40646   -7233.3241    4457.3542   -1411.5883   -2607.5839    12886.676 0.0027447984  0.035829891    1.6138776 
   96000     382.5865   -7234.5392    3976.2459    703.99657   -1973.2158    11485.319 0.0027740106  0.035984003    1.6126431 
   98000    398.98101   -7233.7511    3165.8389   -445.12211   -1769.2572    11708.794 0.0027316089  0.035746944    1.6096928 
  100000    409.29324   -7232.9809    2854.7871   -1027.7981     -1638.52    13334.932 0.0027027166  0.035394885    1.6111517 
  102000    370.20054   -7232.7984    2412.8914    1089.1289   -2185.6831    13328.466 0.0026519221   0.03552951    1.6117975 
  104000    392.21961   -7235.7952     1116.863    238.50833   -2734.8565    13214.957 0.0027092088  0.036466362    1.6120479 
  106000    424.25335   -7233.5397    1462.2569   -2150.9309   -1053.0373    12052.999 0.0027147312  0.036544813    1.6172219 
  108000    404.77698   -7233.9869    4280.5844    479.24508   -2877.0509    10760.528 0.0026511723  0.036313376    1.6193493 
  110000    394.66256   -7234.9255    4912.3472   -426.35586   -2331.7642    12112.361 0.0026176211  0.036389848    1.6151887 
  112000     421.5934    -7234.665    1975.6789    38.796611   -3102.6585      14826.5  0.002656223  0.036446515    1.6180825 
  114000    385.51095   -7232.7546    4720.9376   -710.11451   -1858.9746    12898.702 0.0026077052  0.036354378    1.6193924 
  116000    383.13966    -7234.193    3246.0142    249.51739   -3205.3475    11303.574  0.002560658   0.03668924    1.6171543 
  118000    391.11127   -7234.2671    1642.0642    512.62772   -1994.4015    12514.975 0.0024944759  0.036817463     1.616339 
  120000    392.76362   -7233.6947    2428.8122   -910.01443   -1062.0414    11189.562 0.0024510041  0.036606259    1.6184688 
  122000    408.12412   -7234.0129    817.66083   -545.18563   -2810.6781    13069.955 0.0024103993  0.036246663    1.6157817 
  124000    369.06429   -7234.4329    1812.3383    343.72643   -2731.4515    12259.624 0.0023637851  0.036036092    1.6153494 
  126000    362.17526   -7234.3004    4367.3961    3512.0027   -2128.1663    10675.749 0.0024120378  0.035776439    1.6160752 
  128000    399.98446   -7233.0533     3907.391    70.385762   -2183.4044    13465.887 0.0024509056  0.035580333    1.6175094 
  130000    405.08586   -7234.1914    3166.9247    176.61899   -1987.5595    12063.298 0.0024066881  0.035807306    1.6157123 
  132000    384.20458   -7231.8971    1123.4745   -1045.9156   -830.09954    12699.706 0.0023924318  0.035668141    1.6155388 
  134000    401.27878     -7233.08    2868.5379     106.2843    -1371.297    10587.368 0.0024421715  0.035292967    1.6139149 
  136000      397.368   -7232.4702    2989.2901    1050.8036    -2321.768    11017.785 0.0024564082  0.035164997     1.614914 
  138000    405.35715   -7234.1596   -361.58151    336.32211   -2191.4736    13214.115 0.0025481576  0.035061767    1.6157234 
  140000    401.60023   -7233.1449    1797.7571    1381.4807     495.0953    10724.547 0.0024626714  0.034891777     1.615169 
  142000    395.79984   -7232.6611    1879.9683    61.672024   -1243.9488    11709.183 0.0024101131  0.034704702    1.6122554 
  144000    374.59384   -7232.8364    1403.8585    323.85406   -1935.2765    11364.117  0.002386335  0.034778804    1.6111004 
  146000    390.81539   -7234.2419    3404.5209   -72.859856   -1674.7842    14816.504 0.0023544221  0.034594511    1.6130315 
  148000    379.47577     -7233.89    2607.7857    1539.2687    -2828.127    9682.7108 0.0023572857   0.03439692    1.6147251 
  150000    429.16897   -7234.7804    3679.4473   -3004.6527   -2633.7721    12270.612 0.0023790552  0.034442623    1.6117962 
  152000    402.02838   -7233.0345    4362.9414    613.33157   -510.68868    9980.3769 0.0023501718  0.034534577    1.6104015 
  154000    406.74726   -7234.5274    2813.5887    493.27223   -1539.6803    12215.558  0.002343684  0.034210287    1.6122607 
  156000    393.56099   -7234.7291    2705.2983   -662.83474   -4457.5859    11475.586  0.002311829  0.034056365    1.6134657 
  158000    377.39965   -7233.3393    4480.1379    501.36877   -2727.8518    12247.278 0.0022846283  0.034177868    1.6099719 
  160000    348.38588   -7234.1348    3686.4106   -1909.0069   -510.91624    13248.293 0.0022706137  0.033934773    1.6091332 
  162000    424.25732   -7234.5263    2745.4946    187.04627   -4072.9784    12179.243 0.0022854385  0.033840112    1.6124145 
  164000    397.03687   -7234.9505    3871.8683    809.92175   -1125.6193    13972.019  0.002198711  0.033781648    1.6103989 
  166000    397.67702    -7234.344    4819.9736    381.17149   -1589.6529    12772.912 0.0021831483  0.033844775    1.6113247 
  168000    397.95699   -7234.6993    1939.1724      2500.65   -3634.1586    11236.079 0.0021748166  0.033700434    1.6118985 
  170000    428.65325   -7234.6134    2620.8467   -1315.4233   -3039.4977    9969.8565 0.0021339124  0.034307775    1.6109193 
  172000    405.93046   -7233.7411    4458.2574    1943.5176   -288.04808    13228.223 0.0021124222  0.034455345     1.609244 
  174000    395.62205   -7233.7055    4277.6558    9.2908832   -5161.0213    11604.341 0.0021035208  0.034071593    1.6094779 
  176000    414.42442   -7232.8915    859.55391    169.30548   -158.45255    13433.707 0.0021097355  0.034143616    1.6106806 
  178000    401.88323   -7232.9201    4861.4587    744.67048   -440.67588    9999.3718 0.0021019601  0.034091498    1.6093805 
  180000    398.60942   -7233.3471    1864.3462   -414.92541   -3327.6873    12548.557  0.002069186  0.033914301    1.6100723 
  182000    367.93717   -7233.1208    1211.4144      -372.09   -1161.6992    11300.181 0.0020702579  0.034387804    1.6122369 
  184000    421.77957   -7234.4823    2158.7179   -500.58215   -2799.9948    11322.024 0.0020506384  0.034320862    1.6100006 
  186000    416.23516   -7233.8202    1465.2308    2518.4728   -2049.1252    12850.983 0.0020274863  0.034205594     1.608951 
  188000    400.19804   -7233.5607    6490.3933   -244.03099   -1015.9214    13566.877 0.0020057046  0.034174132    1.6087915 
  190000    390.82228   -7234.9975    3682.6316   -80.808227   -1372.1974    10566.396 0.0019814683  0.034045849     1.610004 
  192000    413.96284   -7234.0567    5435.7517     676.9433   -2231.7491    16324.369 0.0019751119  0.034005061    1.6086027 
  194000    411.79369   -7233.0842    2511.1759   -876.44889   -1694.0422    12541.561 0.0019829232  0.034115637    1.6090441 
  196000    356.77387   -7233.5472    2532.5759    685.62212   -3065.2118    11645.001  0.001937787  0.034297629    1.6083899 
  198000    391.80406   -7234.4905    3392.6814   -783.51828   -322.56649    12552.268 0.0018852639  0.034438926      1.60734 
  200000    395.11404    -7234.127    5451.6994    322.72668   -2272.8602    13408.611 0.0018825941  0.034323289    1.6077904 
  202000    424.16987   -7233.8665    5393.5622    1297.5136   -935.82049    14063.272  0.001873869   0.03426752    1.6093348 
  204000    397.16014   -7232.5911    3461.8571    -904.2512   -1060.9653    13094.905 0.0018466805  0.034193064    1.6115412 
  206000    391.33205   -7234.0982    3678.3334    868.74961    -315.8884    11373.888 0.0018623179  0.034306871     1.610895 
  208000    413.51018   -7232.6779    3137.6705   -544.46421    434.84775    10586.568  0.001846286  0.034546022    1.6112902 
  210000     393.7192   -7234.5547    2116.6435    925.77074   -2899.0684    13160.719 0.0018526301  0.034511007    1.6095594 
  212000    391.65491   -7234.2435    1853.4994    128.62068    -1892.876    9792.6837 0.0018690293  0.034740849    1.6088441 
  214000    426.80042   -7233.4533    3932.0767    733.52767   -1487.6678    14043.791 0.0018215973  0.034727657    1.6096161 
  216000    406.41688   -7233.7498    2532.4053   -2144.6922   -20.277613     9967.867 0.0018130546  0.034609027    1.6100854 
  218000    394.90746   -7234.3113     443.2102    211.04565    519.08001    13010.944 0.0017870706  0.034412015    1.6117655 
  220000    421.93638   -7232.3517    2486.0234    1608.7855   -3234.0198    11925.087 0.0017793434  0.034457433    1.6131933 
  222000    402.06482   -7233.8392    3485.3091    2386.7757    309.15272    12383.823 0.0018004887  0.034570639    1.6132681 
  224000    394.95274   -7234.8748    2442.1728    348.24617   -2283.2279    11971.168 0.0018069117  0.034717587    1.6141367 
  226000    381.20056   -7233.7636    4108.3898     1276.367   -2211.7158    13636.752 0.0018354284  0.034574012     1.613169 
  228000     406.9025   -7233.6301    4202.9032    -143.7519   -2374.4337    11223.591 0.0017997499  0.034647615    1.6128291 
  230000    369.71317   -7233.5577    3744.3101    2627.4234   -1879.0274    10561.972 0.0017835566  0.034545461    1.6132281 
  232000    420.61217    -7234.131    4370.0751   -1065.9584   -604.15405    11419.868 0.0017562046  0.034710435    1.6136509 
  234000    397.39413   -7233.5283    2919.4963    2020.6255    -2656.375    11387.343 0.0017603538  0.034711706      1.61319 
  236000    405.37294    -7232.875    4091.7993   -312.93314   -2236.2076    12450.105 0.0017636643  0.034740674    1.6127914 
  238000    380.75472    -7230.546     4815.377     -19.3894   -2284.8067    15248.892  0.001766934   0.03492694    1.6128245 
  240000    401.70787   -7233.4861    1511.9292     566.4532   -2292.9916    14912.713 0.0017546712  0.034914623    1.6143378 
  242000    383.76357   -7234.4083    4175.7701   -922.41822   -1061.6546    12180.786 0.0017348729  0.034880634    1.6140428 
  244000    378.99412   -7233.6067    2764.1556    1333.9081   -2389.5112    12576.615  0.001758844  0.034872434    1.6140819 
  246000    379.65863   -7233.9223    4252.7838   -404.06095   -272.15213    11565.314 0.0017515701  0.035047553      1.61434 
  248000    422.90804   -7233.4415    1799.8679   -442.31701   -2336.2915    11606.459 0.0017443189  0.034925798    1.6141834 
  250000    390.09996    -7233.744    2976.5083   -2754.8015    -544.7023    12614.749 0.0017270129  0.034902657    1.6121008 
  252000    382.39601   -7231.6846    2885.5597   -232.28864   -745.42982    12274.778 0.0017308117  0.034894647    1.6121516 
  254000    423.51589   -7233.2019   -42.180736   -995.16121   -48.859488    13629.144 0.0017398724  0.035050661    1.6128923 
  256000     421.2512   -7233.4102    2300.9463   -230.95487   -931.38839    10968.077  0.001750035  0.035032553    1.6139632 
  258000    399.56309   -7233.6083    4107.1127   -174.37008   -2669.8374    12042.769 0.0017327654  0.034918458    1.6141122 
  260000    386.57833   -7232.4191    3427.8571    491.73556   -4637.5319    11035.703 0.0017366867  0.034993765    1.6140645 
  262000    409.65258   -7233.5664    6013.9909   -1200.9798   -3650.6536    10037.348 0.0017152916  0.035130318    1.6142078 
  264000    401.25844   -7234.2392    3719.4866    2524.9504   -4426.5095    13610.991 0.0017243228  0.035133379    1.6135477 
  266000    400.94792   -7233.7017    5771.2921    211.89923   -4117.9384    11848.095 0.0017749896  0.035188032    1.6154004 
  268000    397.96914   -7232.8789    4098.9438    443.03775   -2744.6737    13110.641 0.0017621318  0.035233237    1.6145413 
  270000    390.61275   -7233.7808    3718.7728    733.28661     -3509.73    12937.958 0.0017554458  0.035298361     1.613549 
  272000    396.40145   -7233.5959    3311.8747   -965.95635   -343.50786    15098.377 0.0017420114  0.035452703    1.6137791 
  274000    372.63096   -7231.8927    4441.6167   -322.91361   -3167.9514    11399.148 0.0017320814   0.03543322    1.6151596 
  276000    368.59476   -7233.9833    4289.8035    2009.1454   -1834.0514    10907.909 0.0017154577  0.035529883    1.6149596 
  278000    398.85108   -7234.1837    3849.2414    1827.7395   -1474.5506    13992.032 0.0017299989  0.035510658    1.6147777 
  280000    402.67797   -7233.6053    2950.3112    896.32247   -2785.7964    12891.009 0.0017082689   0.03549253    1.6158374 
  282000    375.84001   -7233.2159    1816.6085    1801.5069    -1888.215    13462.384 0.0017018941  0.035720061    1.6149621 
  284000     369.7314   -7232.9944    45.576803    1577.9464    -2481.639    11875.136 0.0016844627  0.035830246    1.6143289 
  286000    414.96844   -7234.2153    2355.9312    512.32173   -1908.2927    12330.952 0.0016888662  0.035726555     1.615438 
  288000     408.7868   -7234.3117    3181.3792    -1191.979   -2718.2504    10394.486 0.0016789754  0.035714178    1.6159724 
  290000    418.36969   -7233.4322    2585.3429   -1091.2472   -382.36863    13622.755 0.0016739391  0.035627881    1.6165518 
  292000    390.06074   -7235.0767    1866.5825    708.47985   -721.65722    12962.406 0.0016545971  0.035646805    1.6184947 
  294000    413.35733   -7234.1274     4293.884    292.25292   -3693.1612    10733.541  0.001646011  0.035749451    1.6178848 
  296000    377.32372   -7233.6477    1461.5419    -906.8069    827.53176    12989.248 0.0016496304  0.035917544    1.6173954 
  298000    391.71018   -7232.6508    4266.8462   -29.858939    -1874.466    10386.028  0.001641078  0.035963111     1.617978 
  300000    405.62001   -7234.5215    5487.3564   -1163.0429   -2836.6412    12024.785 0.0016264383  0.035998907    1.6163193 
  302000    411.88792    -7234.004     3016.376    171.41554   -3025.1361     11743.57 0.0016260687  0.035839414    1.6167018 
  304000    401.93374   -7232.9296    4875.2871    1339.8455   -2053.6813    9723.8709 0.0016291365  0.035767395    1.6178994 
  306000    407.11602   -7234.3984    2082.5075   -2087.4909   -1562.6553    11260.798 0.0016203659    0.0359679     1.617029 
  308000    395.27357   -7233.7863    3939.7098    1134.8265   -585.05419    11297.433 0.0016150292  0.035893714     1.616143 
  310000    396.02245   -7232.1425    831.47398   -1171.7676     978.0883    14454.133 0.0016106191  0.035839801    1.6164648 
  312000     415.5629   -7233.9268    4040.9015   -367.63471   -2590.0019    12523.037 0.0016008173  0.035751527    1.6177759 
  314000    393.38217   -7234.5652    968.09367   -500.61971    71.551781    12726.596 0.0016075117   0.03580298     1.618107 
  316000    397.88575   -7235.3218    2944.5058   -614.95797   -763.64088    11980.412 0.0015987373  0.035917526     1.617634 
  318000    377.87836   -7233.8025    4652.1466    942.33618   -1449.1856    11546.343 0.0015860884   0.03590356    1.6170059 
  320000    406.43172   -7232.8539    3265.1592    -1707.731   -2416.8196    11666.042 0.0015718993  0.035960054    1.6166064 
  322000     393.7425   -7234.1361    2964.8458    589.90473   -1047.2987    12001.177 0.0015738338  0.035946959    1.6174617 
  324000    423.22109   -7233.0729    3376.0493    1539.7335   -2866.5592    11382.465 0.0015619116  0.035836191    1.6180466 
  326000    391.09668   -7234.2411    3675.0885   -175.90417   -4177.3535    10431.761 0.0015966044  0.035945105    1.6176712 
  328000    399.56241   -7233.6797    4416.7056   -1135.2524    259.72549    12705.155 0.0015766359  0.035987633    1.6165971 
  330000    392.81687   -7234.4055    1825.2303   -899.86343   -4293.0704     14999.76 0.0015992705  0.035777514     1.617566 
  332000    383.08212   -7232.4637    2956.0309     1200.159   -4009.5118    10863.095  0.001592603  0.036024016    1.6181377 
  334000    422.53823    -7233.907     3382.811   -2154.3253   -40.050794    11979.321 0.0015986765  0.036107116    1.6180772 
  336000    400.11486   -7232.2189    3877.5194   -2806.3394   -1601.9663    13557.965 0.0016060963   0.03598046    1.6175587 
  338000    383.93018   -7232.9946    1731.1613    -2122.218    1788.6959    11791.502 0.0015937865  0.035979993    1.6176448 
  340000    379.60416   -7233.3503    3288.6046   -926.87696   -81.516679    13969.683 0.0016091679  0.036015861    1.6175078 
  342000    409.74387   -7233.4308    1872.1039    461.14341   -318.82865     12565.94 0.0016211885  0.035941479    1.6178995 
  344000    383.86166   -7234.6843    3044.1835   -190.97375   -2993.9606    12323.777 0.0016130575  0.035787929    1.6186354 
  346000    372.70662   -7233.4824    2959.1242     1872.783   -4368.0403    11258.336 0.0016111155  0.036149142    1.6186189 
  348000    428.61566   -7232.5127    3100.7505    1132.9034    -1794.227    11108.957 0.0015961738  0.036101606    1.6174925 
  350000    413.18543   -7232.7342    4114.7827     1318.022   -1788.4742    12942.062 0.0015894361  0.035936012    1.6177214 
  352000    394.34194   -7233.4129    6021.1408    580.04737   -2724.0249    11869.028 0.0015738155   0.03588922    1.6181174 
  354000    405.69036   -7232.4388    6712.8677   -938.40854   -3276.5198    15327.382  0.001562378  0.035820172    1.6183859 
  356000    375.03023   -7232.9453    5096.3748    954.21871   -2979.6146    12889.788 0.0015637141   0.03587272    1.6179457 
  358000    395.95479   -7232.8821    4194.6268   -2665.0387   -3821.7731    12105.634 0.0015518278  0.035903013    1.6187259 
  360000    398.16275   -7233.1641    2676.1929   -530.45406   -4822.9088    13315.266 0.0015362761  0.035952969    1.6196008 
  362000    403.67349   -7235.1993    3185.5877    1225.2657   -1843.2962    13138.392 0.0015355805  0.036026467     1.619244 
  364000    402.59741   -7233.4538    4600.5782   -772.32511    495.46917    12332.527 0.0015162092  0.035956242     1.618903 
  366000    409.40936   -7233.6637    2854.9944    2967.5823   -1684.2675    13550.174 0.0015329211  0.035831503    1.6193753 
  368000    418.78621   -7233.1885    1932.2105   -648.13049   -663.26977     11137.54  0.001539002  0.035812533    1.6189508 
  370000    388.27977    -7232.571    1072.5326    316.75933    -1834.789    12487.016 0.0015562935  0.035863067    1.6182718 
  372000    402.40345   -7232.1814     2217.642     1164.196   -2665.1544    11708.429   0.00154016  0.035971976    1.6186285 
  374000    406.26783   -7232.3665    3576.8377    677.95533     844.6879    10575.071  0.001532162  0.036001014    1.6187534 
  376000    384.12104   -7234.0959     4481.616    2064.9881   -1417.3782    13856.901 0.0015769597   0.03601798    1.6185506 
  378000    385.73937   -7231.6434    1474.1482    204.82033    694.64825    12284.027 0.0015871117  0.036008927    1.6196393 
  380000    386.82179   -7233.6556    2270.1573   -320.13858   -1150.4226    14630.173 0.0015870218  0.035956025    1.6206854 
  382000    385.88162   -7234.1548    4247.2207   -2599.6789   -1613.3299     12474.41 0.0015797154  0.035896239    1.6197151 
  384000    375.75646    -7235.323     3630.894    458.25991   -3002.0284     13649.63 0.0015681787  0.035875266     1.619142 
  386000    395.27588   -7233.2132    4857.2472    1673.9885   -2792.2015    11612.859  0.001580732  0.036003548    1.6202674 
  388000    365.74434   -7232.9618     2761.298    1064.2518   -3817.2527    13888.347 0.0015931427  0.036043882    1.6193681 
  390000    376.70404   -7233.7296    4804.8649    280.44341   -1519.4424    13347.838 0.0015889424  0.036071194    1.6195736 
  392000    391.90737   -7234.2463    3803.4868    532.41844   -2902.8105    13274.876  0.001580424   0.03606759    1.6211609 
  394000    387.65917   -7231.7511    2520.8455   -539.07129   -1306.3888     8756.867  0.001572006   0.03612398    1.6217023 
  396000     393.3541    -7232.824     1245.107    1391.5817    -2543.702    13302.285 0.0015727353  0.036089485     1.620465 
  398000     395.5193   -7233.9308    2296.1894   -758.57732   -2877.5646    12446.702 0.0015811224  0.036089363    1.6216309 
  400000     369.3935   -7232.9643    1927.8176   -1472.9023   -516.44974    14339.972 0.0015793912  0.036205485    1.6213804 
  402000    388.92137   -7234.7539    4031.6416   -1270.9122   -1431.2089    11134.142 0.0015720948  0.036237999    1.6214172 
  404000    394.99859   -7235.7906    2273.3823   -536.68818   -2095.4709    10975.286  0.001570311  0.036224222    1.6209929 
  406000    382.92902   -7234.1827    1361.5328   -1381.5993    -792.0972    12671.491  0.001576313  0.036187289    1.6220775 
  408000    442.35445   -7232.3874    4085.0559   -1429.3882   -3724.1448    10055.524 0.0015664218  0.036080964    1.6215482 
  410000    372.34615    -7233.548     2221.968    810.50268   -2250.9753    11981.909 0.0015628827  0.036265072    1.6216342 
  412000    395.33613   -7232.3245    3735.8334    1914.9029   -4121.7626    8434.0948 0.0015526981  0.036377699    1.6218805 
  414000     385.4096   -7232.7458    2166.2487    2793.2713    -484.2109    8815.3446 0.0015556656   0.03631672    1.6215899 
  416000    384.52227   -7233.0465    4521.9269     521.4102    -3238.167    12985.606 0.0015518859  0.036267775    1.6212183 
  418000    392.47626   -7232.7805    2976.8595    1477.2703   -2304.6932     14879.87 0.0015545666  0.036391947    1.6222607 
  420000    426.84915   -7234.6151    4172.2663    494.99805   -3642.2978     13912.21 0.0015608828  0.036328048    1.6228396 
  422000    388.38832   -7232.8344    6317.9831   -55.229203   -1648.4136    11394.084 0.0015486421  0.036269776    1.6222302 
  424000    411.78674   -7233.6056    3103.7426    781.01852   -1949.2011    11837.166 0.0015394626  0.036196125     1.621924 
  426000    393.19724   -7233.9095    5204.2353     -322.292    -1786.452    12424.331 0.0015310415  0.036356066    1.6212636 
  428000    377.43041    -7234.049    2237.4741     342.7651   -783.93493    11950.365 0.0015222226  0.036373005    1.6217335 
  430000    397.02973   -7232.2139    3638.0027      150.922   -1339.5095    12842.811 0.0015171492  0.036345841    1.6219325 
  432000    400.09119   -7232.6781      668.933   -953.24397    -1354.815    11400.645 0.0015035758  0.036355551    1.6222788 
  434000     398.4639    -7233.984      2745.72   -1214.4416   -2448.6412    11817.845 0.0015098038  0.036411467     1.621871 
  436000    402.94466   -7233.8615    1632.0226    211.39349    1834.3461    13485.884 0.0015114231  0.036355677     1.621485 
  438000    371.43533   -7233.6385    1912.2355   -116.15419   -1426.6398    14137.829 0.0014870323  0.036338893    1.6216689 
  440000    364.22627   -7232.7127   -274.05704    135.84233   -1760.6587    12894.242 0.0014844536  0.036349422    1.6227714 
  442000    424.32797   -7235.1772    2394.0209   -3629.7843   -54.554165    8273.3175 0.0014947425  0.036498335    1.6227081 
  444000    394.71193   -7234.7414    994.80865     814.8354    502.48091    9513.5189 0.0014923736  0.036515647    1.6218607 
  446000    397.50081   -7233.9745    2945.0387    219.44132   -1903.9877    11746.831 0.0014821628  0.036497653    1.6219945 
  448000    403.81863   -7233.9022    4256.0098    384.20105    258.19527    12827.207  0.001509824   0.03638188    1.6221887 
  450000    409.92317   -7232.6631    3804.5353   -2213.3491   -4060.8979    13852.413 0.0015055684  0.036435319    1.6223067 
  452000    399.29279    -7233.375    1755.3862    118.92885   -508.25582    13372.037 0.0015063156  0.036456669    1.6231759 
  454000    370.97085   -7233.3666    4229.2077   -157.65035   -2006.1715    12166.462 0.0014974237  0.036344014    1.6227856 
  456000    389.89459   -7235.6476    4560.1656    6.2200968   -4264.2965    11029.828 0.0014887245  0.036414737    1.6222191 
  458000    369.99888   -7233.9636    2670.0231   -390.23552    201.26174    13792.834 0.0014999624  0.036656721    1.6224377 
  460000     399.9385   -7233.7106     3862.538    -775.1864   -827.93299    10684.452 0.0015239987   0.03655048    1.6232036 
  462000     398.9821    -7233.136    3136.7539   -770.09214   -1246.6928    10351.825   0.00152027   0.03650365    1.6225166 
  464000    405.81017   -7232.8148    2325.3585   -71.645351   -434.96296    10141.076 0.0015238166  0.036567497     1.622038 
  466000    407.25339   -7233.5851    5338.9068   -428.87075    -1505.111    11607.047 0.0015135381  0.036598844     1.623346 
  468000    396.30611   -7234.0573    3331.3211    1510.7739   -2139.3426    12713.665 0.0015058828  0.036710873    1.6232172 
  470000    431.58239   -7231.8729    5022.9311    1200.6596   -1990.1906    12067.653 0.0015118012  0.036672647    1.6235241 
  472000    401.25744   -7233.5418    2877.8661   -2603.7705   -1480.0398    10009.668 0.0015076548  0.036770149    1.6230817 
  474000    412.10823   -7233.2373    3648.8936    1002.3437   -4299.3616    8593.3658 0.0014981151  0.036748171    1.6221448 
  476000    408.54045   -7232.5103    6047.7363   -1896.5708   -2140.9038    13596.858 0.0014900974  0.036690818    1.6222628 
  478000    402.57576   -7233.6039    2832.6292    2373.3422   -1418.6331     9951.647 0.0014942634  0.036748317    1.6233124 
  480000    406.56867   -7233.0225    4839.1285    82.099104   -1053.7112    12070.865 0.0015017518  0.036714651    1.6236094 
  482000    375.23128   -7233.5999    3538.2668    1055.7571   -3104.4564    11641.291 0.0015019997  0.036686591    1.6226641 
  484000    378.85156   -7233.7675    2612.0274    3117.2689   -2109.5564    13845.394 0.0014942073  0.036721142    1.6224183 
  486000    424.99859   -7233.2859     1888.525    1676.3323   -1684.8203    12736.965 0.0014935194  0.036831552    1.6223655 
  488000    397.49051   -7233.2322    3948.6626    912.25954   -3392.6427    12154.877 0.0015064537  0.036793224    1.6220916 
  490000    385.09381   -7232.9187    3347.4219   -836.42812   -582.32818     11915.73 0.0015004862  0.036726199    1.6218917 
  492000    394.32726   -7233.1723    1718.9412   -953.97958   -4224.0254    12556.233 0.0014967436  0.036677824    1.6223925 
  494000    401.41016   -7232.9723    1847.6686    1587.8897   -2039.3856    11584.029  0.001502353  0.036810273    1.6221573 
  496000    397.03637   -7232.4218    3480.2909    -825.7068   -1455.4606     13324.03 0.0015017556  0.036742559    1.6217234 
  498000    394.20916    -7232.565     4097.547   -829.24879   -618.14271    12099.177 0.0015018401  0.036687032    1.6223071 
  500000    384.01773    -7231.877    5317.7628   -236.83615    -2501.126    14138.304 0.0015002242  0.036652795    1.6219648 
  502000    387.19061   -7232.1162    4027.5128   -577.72518   -848.37041     11347.83 0.0014987256  0.036657695    1.6213072 
  504000    400.26921    -7233.799    1993.8416   -912.12489   -1135.8877    15275.429 0.0014933287  0.036574287    1.6216066 
  506000    417.19811   -7234.2181    1262.2026   -785.07673   -1994.0197    11371.353 0.0014851392  0.036579778    1.6223162 
  508000    408.15693   -7232.2454    2348.6518    1729.6506   -859.15057    13645.806  0.001480129  0.036634945    1.6221231 
  510000    379.51649   -7234.5535    4946.7793   -50.084392   -404.43161        13481 0.0014935714  0.036541362    1.6220919 
  512000    383.94434   -7232.9963    2505.1531   -1346.2335    1079.6674    14288.938 0.0014834437   0.03648423    1.6223021 
  514000    386.87391   -7233.3559    3973.3433   -673.40183   -642.59304    10699.221 0.0014808926    0.0364371    1.6224801 
  516000    366.36578   -7234.2795    5748.2455      1643.22    2163.3997    13389.637 0.0014738576  0.036423731    1.6218182 
  518000    402.88028   -7232.5169    3963.8368   -1527.1555   -476.21286    10455.439 0.0014712076  0.036406277    1.6223349 
  520000    369.17429    -7234.166    3830.2307    2268.7953    932.56498    11042.573 0.0014735148  0.036364091    1.6212988 
  522000    377.06094   -7232.9266      2324.44    24.992641    -629.2158     11419.13  0.001470324  0.036362305    1.6205726 
  524000    453.19745   -7233.3523    3530.0723    1597.2945   -3035.5861    12582.113 0.0014654794  0.036285441    1.6203691 
  526000    399.31069   -7232.2836    394.26786    136.37375   -1359.8712    14070.868 0.0014641963  0.036196836     1.621099 
  528000    408.15772   -7233.1976    2358.8324    650.74754   -1344.3014    10492.699 0.0014560387  0.036183757    1.6215323 
  530000    428.43631   -7233.5476    1600.1105   -1310.3903   -2373.8784     11695.03 0.0014504077   0.03623613    1.6210902 
  532000    383.76724   -7230.9399     1696.851    445.40781   -270.09088    12341.383 0.0014481969   0.03617739    1.6212099 
  534000    398.05052   -7232.5747    5473.1644   -330.77504   -2183.3315    10986.171 0.0014582326  0.036092371    1.6209534 
  536000    398.66145   -7233.8528    1234.7612   -1263.1191    278.51566     14094.52 0.0014505545  0.036077886    1.6200248 
  538000    407.19017   -7232.9189    3386.2427    -977.2021   -1465.5511    11928.435 0.0014401776   0.03607557    1.6198832 
  540000     409.1801   -7234.3973     2984.656   -2001.2816   -2826.9945    10272.638 0.0014467319   0.03611538    1.6207572 
  542000    409.35515   -7233.9921     5270.684   -249.44805   -390.02978    13761.046 0.0014518415  0.036102006    1.6206984 
  544000    385.20736   -7234.8687    713.54029    341.47702   -706.92306    11601.171 0.0014425275  0.036075752    1.6214078 
  546000    407.50847   -7233.5701     1394.809     483.1037   -3825.1778    11448.043 0.0014409209  0.036099728    1.6220748 
  548000    396.37366   -7234.8347    3490.6912    654.66167   -2240.6937    11640.251 0.0014399849  0.036197521    1.6212196 
  550000    396.50127   -7232.9705    3459.5511   -1185.7174   -1684.0195    10914.661 0.0014372385  0.036210196    1.6215703 
  552000    406.60372   -7233.7685    3474.7259    1843.7294    -1116.306    12065.799  0.001436191  0.036224416    1.6211532 
  554000     416.3865   -7234.5693    5483.3966   -339.69618    532.63852    12741.812 0.0014321158  0.036220021    1.6213122 
  556000    401.93282   -7233.7417    2691.9128    677.92986   -1459.3865    13470.171 0.0014250092  0.036218521    1.6213162 
  558000    385.87036   -7233.6191    109.20051   -1146.7446   -2360.6901    12164.123 0.0014214424  0.036204341    1.6212754 
  560000    381.69843    -7233.529    4756.1475    39.025141   -3750.1544    11437.703 0.0014216973  0.036261162    1.6217733 
  562000    400.43303    -7234.711    481.31492   -238.05276   -2975.1645    12115.408 0.0014124134  0.036289446    1.6219334 
  564000    402.71189   -7231.9717    3587.9941    485.09459   -3281.8649    12228.253 0.0014089102   0.03629311    1.6217973 
  566000    362.99713   -7233.5807   -68.727552    1047.3549   -4887.9403    12470.452 0.0014133721  0.036271862    1.6218149 
  568000    404.69054   -7234.1435    2452.2858     463.4711   -1150.7202    12375.358 0.0014072795  0.036344307    1.6220202 
  570000    424.73161   -7234.0115    1756.3068   -782.59345   -315.57964    11427.058 0.0014004986  0.036274563    1.6222765 
  572000    416.98479   -7233.5117    472.56614    -226.9165   -5713.0374    13679.051 0.0013907914  0.036233171    1.6226157 
  574000    414.29873   -7232.6477    833.04123    1294.9329   -2641.1599    13586.883 0.0013950625  0.036356027    1.6218107 
  576000    409.82747   -7234.0117   -74.651703   -3936.9459   -2107.2159     10956.77 0.0013957825  0.036390873    1.6220362 
  578000    410.87516   -7234.8829    3946.9705    -1242.638   -1698.7942    12855.922  0.001390224  0.036426795    1.6220298 
  580000    398.79515   -7234.3097    2583.4039   -1336.9394   -1991.0618     12986.86 0.0013897118  0.036388883    1.6224314 
  582000    395.98465   -7231.9201    2857.9359    2009.5594   -4562.3178    14161.418 0.0013915779  0.036324385    1.6228814 
  584000    398.45754   -7234.1273    1433.5337   -984.98666   -1085.6191    14053.421 0.0014451097  0.036378535    1.6230006 
  586000    368.23698   -7233.7774    2443.5072    1349.2838    -3067.515    12509.557 0.0014185466    0.0363706    1.6227582 
  588000    394.15707   -7233.3635    2169.8765   -2356.9249   -733.93373    13663.233 0.0014195797  0.036449341    1.6221862 
  590000    406.95717   -7233.9022    1775.3556    2519.7002    913.03155    14886.077 0.0014198173  0.036465474    1.6227293 
  592000    429.10082   -7234.0765    2292.3493    1192.1199   -1586.9738      13126.9 0.0014233989  0.036419431    1.6232468 
  594000    386.72515   -7234.2689    2332.3925   -1554.3451   -2247.8122    10396.294 0.0014307845  0.036459225    1.6229654 
  596000    383.02566   -7233.6535     2148.776    995.61119   -781.53699    12634.445 0.0014138937  0.036509297    1.6228342 
  598000    397.53916   -7233.2158    3643.1573   -28.211625   -2983.0533    12069.707 0.0014088935   0.03653917    1.6224945 
  600000    397.94294   -7233.4805    2415.3557     263.5876   -761.17673    11558.424 0.0014067632  0.036517072    1.6228625 
  602000    405.27276   -7233.6749    3786.2921   -181.64968   -5025.0959    12490.455 0.0014127914  0.036469122    1.6232427 
  604000    386.96721   -7234.2004    4083.7193   -2008.6346   -1251.9955    11205.413 0.0014048266  0.036465318    1.6230924 
  606000    415.41415   -7235.0067     5848.607    931.95897   -4579.1396    12846.638 0.0013985541    0.0364854    1.6233267 
  608000    369.28024   -7235.3315    4871.3297   -1293.1009   -3449.1969    10436.183 0.0014014103  0.036473536    1.6232742 
  610000    384.43844   -7234.5719    1336.1202   -683.45191   -1141.2108    10872.084  0.001404404  0.036490425    1.6235434 
  612000    421.29106   -7234.2168    3404.7953   -864.16993   -3980.5646     11416.81 0.0013973582  0.036473074    1.6233509 
  614000    392.01944   -7234.2188     1491.376   -1030.4142   -923.86093    9972.7791 0.0014139001  0.036550437    1.6231218 
  616000    372.12928   -7234.2623    1326.5694   -1115.9556   -1028.6838    10925.354 0.0013983712  0.036539194    1.6236126 
  618000    391.16797   -7233.3851    2441.4038   -388.90861   -76.804167    11569.757  0.001392018  0.036497724    1.6240252 
  620000    417.27901   -7234.4835    2140.9673     624.6783   -2458.0535    11686.655  0.001386343  0.036529688    1.6239678 
  622000    423.84133   -7234.4128    2786.5349   -1388.5778   -1048.0579    14906.999 0.0013911659  0.036540903    1.6239465 
  624000     405.4019   -7232.2032    6007.6071    234.20913   -2073.5377    11222.584 0.0013974103  0.036534396    1.6241294 
  626000    407.76535   -7233.5755    4556.4497   -539.41504   -1973.7985    14168.101 0.0013935758  0.036525163     1.623755 
  628000    375.36585   -7234.0561    4227.1361   -65.761765   -6180.2713    15505.705 0.0013861254  0.036647621    1.6231995 
  630000    400.93117   -7233.9002     2806.304    347.16824   -1447.0132    11521.644 0.0013897098  0.036672013    1.6228682 
  632000    397.09484   -7232.8701    6019.1779    3728.9017   -1506.4025    14692.372 0.0013911347  0.036595111    1.6233618 
  634000    407.28523    -7233.284    1865.8982    2794.6674   -2428.7411    12086.192 0.0013852721  0.036572057     1.623621 
  636000    394.36868    -7233.336    4414.4686    2493.8625   -616.69831     13687.22 0.0014102694  0.036571902    1.6240684 
  638000    393.93611   -7233.3927   -1253.2352    838.71002   -1531.4758    11192.604 0.0013943766  0.036591195    1.6242542 
  640000    407.15944   -7234.2258    3314.1979   -1497.4566   -3260.0139    11797.007 0.0013846433   0.03664895    1.6239317 
  642000    388.24423   -7232.7565    1806.8584    202.35844   -318.35728    13737.321 0.0014060192  0.036687671    1.6240548 
  644000    400.65704    -7233.938     2290.619    736.60222    -2801.371    11279.107 0.0014174141  0.036662436    1.6242698 
  646000    390.18775   -7233.7788    3223.7348   -2821.1991   -1926.2923    14080.637  0.001410168  0.036678555    1.6243902 
  648000    395.77167    -7233.949    2898.3738    140.73764   -2263.5514    12161.405 0.0014043836  0.036661591    1.6244905 
  650000    425.86182   -7233.7993   -10.977921   -1436.7708   -2902.3267    14430.706 0.0014051789  0.036680406    1.6242542 
  652000    399.22546   -7235.5305    6158.5359   -263.18409   -5538.6135    11738.685 0.0013998996   0.03672994    1.6245342 
  654000    392.61361   -7233.1519    4356.8312    1741.7616   -1388.4289    12789.901   0.00139467  0.036655728    1.6251644 
  656000    396.81489   -7235.2982    2794.0157   -1666.9409    -2888.476    11913.483  0.001391698  0.036647939      1.62527 
  658000    405.51068   -7233.2548    3643.4776    -638.3224   -285.69546    9157.8647 0.0013930226  0.036690742    1.6249618 
  660000    416.29262   -7235.7297    744.03754   -754.19911   -2488.4301    11143.515   0.00138357  0.036705481    1.6248848 
  662000    381.22714   -7235.2852    4965.8819    1219.2323    941.30601    13568.715 0.0013923673  0.036743607      1.62453 
  664000    393.67511   -7234.8707    1318.4979    195.82277   -730.84628    13328.814 0.0013921188  0.036739337    1.6242673 
  666000    414.95356   -7234.3349    1114.7741   -502.08263   -2363.3707    12190.073 0.0013906801   0.03679862    1.6247976 
  668000     416.3223   -7232.4472    4197.6305   -344.28064    618.67008    13056.791 0.0014123788  0.036859515    1.6249777 
  670000    402.36288   -7235.5157    151.25323    2391.4758   -2161.3371    15631.252 0.0014099987  0.036793387    1.6251581 
  672000    402.51851   -7234.1136    3271.3816    717.86423    1187.9836     10703.27 0.0014672204  0.036897096    1.6255895 
  674000     384.9465   -7236.1429    3018.6801    2037.6581   -2308.7962    13318.416 0.0014668918  0.036899178    1.6252653 
  676000     406.0966   -7234.8074    2158.6118    2068.5902   -1985.8503    13475.025 0.0014614461  0.036856679    1.6251197 
  678000    389.77665   -7233.3288    2673.7617    1733.0861   -2796.2354    12322.283 0.0014571127  0.036851705    1.6254479 
  680000    414.93234    -7233.682    376.42625    2992.3046   -1463.5657    14193.511 0.0014544626  0.036860085    1.6251549 
  682000    381.02925    -7234.818    2923.4427    359.77594   -3759.0393    15544.136 0.0014515202  0.036825575    1.6252918 
  684000    401.85054   -7233.2608    198.87475    327.19058   -941.51416    9765.9755 0.0014412222  0.036820723    1.6259262 
  686000    405.28287   -7233.5083    2019.7208   -1003.9866   -3279.0398     15482.61 0.0014513306  0.036905229     1.625736 
  688000    397.25544   -7234.3784    1062.9409    335.27218   -1843.7504    11199.955 0.0014403659  0.036942797    1.6254913 
  690000    390.32661   -7233.1219    4047.6645   -129.14759   -1483.4211    10511.112  0.001433545  0.036956105    1.6257012 
  692000    368.67773   -7233.6345    5071.9169   -626.74911   -2618.3637    11931.538  0.001428827  0.036914608    1.6252886 
  694000    403.88719   -7233.1201    4427.4652   -164.82729   -248.53741    12575.784 0.0014249787  0.036917821    1.6258236 
  696000    408.32989   -7233.5429    1612.9852    263.90404   -1718.3131    12062.126 0.0014213243  0.036928524    1.6255343 
  698000    385.33373   -7233.4231    2692.6648   -2374.2675    47.033772     10804.64 0.0014230309  0.036970109    1.6256366 
  700000    418.11447   -7233.9322    2750.9457    333.67397   -3718.8746    12825.308 0.0014176317  0.036938028    1.6254342 
  702000    385.34907   -7234.2549    2708.7521   -850.58006   -841.65342    11096.368 0.0014487046  0.037052607    1.6255106 
  704000    419.90916   -7231.8976    1726.0092   -1566.6961   -1272.0295     12585.28 0.0014317926  0.037035021    1.6258245 
  706000    401.90189    -7234.548    2893.4752   -1194.6996   -1790.8102    11313.723 0.0014301973  0.036979962    1.6263792 
  708000    419.59267   -7234.7571    4963.5677   -410.28581   -861.20007     9555.735 0.0014365203   0.03695692     1.626135 
  710000    436.77854   -7233.8184    5395.6251    -1276.008   -288.64242      12360.7 0.0014364719  0.036964212    1.6260629 
  712000     422.7019   -7234.6343    6597.5912   -770.43774   -1743.3454    12518.998 0.0014669041  0.036980037    1.6262464 
  714000     436.4221   -7235.0767    4698.5866   -1164.6741   -1742.6004    12143.439 0.0014588882  0.036987132    1.6265532 
  716000      392.089    -7233.875    4004.5837   -705.65345   -4143.1508    12796.986 0.0014601445   0.03702107    1.6266102 
  718000    412.53779     -7233.03    830.23787   -2004.8595   -2808.1531    13816.667 0.0014532176  0.037028729    1.6265133 
  720000    394.31244   -7232.1269    2071.6563    -123.0737   -2479.0903     12438.03 0.0014507971  0.037066034    1.6268296 
  722000    355.81527   -7232.4782    1454.2438    1211.6757    -1826.242    12398.757 0.0014552719  0.037037589    1.6271525 
  724000    402.57185   -7234.1659    3153.5732   -960.31058   -2146.0723    10751.583 0.0014791271  0.037067078    1.6265158 
  726000    381.78068   -7234.4693    1978.1222   -868.46186    -1267.604    11350.205 0.0014695108  0.037085425    1.6263965 
  728000    386.73718   -7232.8944    3484.8871    516.97905   -3489.8738    11664.428   0.00147084  0.037071879    1.6266195 
  730000    380.66405   -7234.5229    3076.3071    2663.3917   -2412.2245    13380.801 0.0014650521   0.03716342    1.6264305 
  732000    385.49563    -7233.638      2268.11    1180.1741   -1883.2872    12226.463 0.0014705798  0.037169436    1.6268248 
  734000    396.56212   -7234.0119    2697.7692   -230.24474   -2337.4103    13161.874 0.0014746584  0.037093019    1.6268008 
  736000    432.00697   -7235.0912    2494.1478    2461.9715   -2825.2897    15676.737 0.0014755859  0.037052408    1.6270801 
  738000    391.58732   -7232.7232    2822.4118    1777.6182   -2825.5629    11875.169 0.0014978866  0.037146765    1.6268046 
  740000    396.57449   -7232.6126    3065.7745    -386.5401   -281.82307    13651.747  0.001507522  0.037156276    1.6267342 
  742000    404.36384   -7234.4663    4036.0702    1190.0781   -1305.3739    11153.479 0.0015079628  0.037113376    1.6264284 
  744000    396.24785   -7233.7414    3619.4936    4911.0002   -3620.9077    14203.173 0.0015054655  0.037141453    1.6267859 
  746000    429.93146   -7234.8918    3093.9209    1445.0964    -107.4104     13607.73 0.0015044951  0.037194859    1.6272218 
  748000    399.08889   -7234.4292    5067.3553    2477.8587   -665.61375    12747.696 0.0015050494  0.037143128    1.6274445 
  750000    394.16595    -7235.183     1970.789   -1961.2553   -102.03392    11543.633 0.0015032434  0.037088315    1.6272716 
  752000    415.97936   -7233.7825    3255.2418    711.89922   -2483.7685    12693.881 0.0014978663  0.037051605     1.626999 
  754000      442.963   -7233.4545    4255.3085   -1431.1806   -1670.8428    10802.214 0.0014991862  0.037019621    1.6270497 
  756000    374.32603   -7234.4189    4846.9646   -2189.0668   -1203.9527    12766.076 0.0014987763  0.037035885    1.6266405 
  758000    382.45135   -7232.8786    3987.9675    986.84821   -1830.2773      11819.4 0.0014999638   0.03697487    1.6268338 
  760000    397.82052   -7233.2987    3063.0704   -1098.2465     239.8317    13095.986 0.0015186748   0.03701266    1.6267243 
  762000    391.54382   -7233.5927    5720.0486   -954.44124   -1244.4565    11640.348  0.001510239   0.03695851    1.6264341 
  764000    411.60424   -7233.5985    867.19603   -1365.8142   -872.99982    14315.799 0.0015109952  0.036918988    1.6263853 
  766000    401.28369   -7234.8712    1854.6081    -819.1691   -1785.3091    13625.732   0.00150923  0.036918411    1.6273836 
  768000    431.69835   -7233.1268    3540.8516    717.09593     727.8351    11735.267 0.0015024384  0.036895186    1.6268193 
  770000    405.32973   -7233.8756   -672.30427    543.41738   -1446.2755    12506.929 0.0015023727  0.036860173    1.6268558 
  772000    423.85964   -7232.0128    2508.4912    1304.5202   -3268.7416    11782.691 0.0014993015  0.036804843    1.6270638 
  774000    390.14825   -7233.9785    1015.5989    1598.0347    -102.0709    9768.3323 0.0014985144  0.036924313    1.6264362 
  776000    413.33438   -7233.9071    1727.3939   -730.52469   -2661.1498    11296.116 0.0014991618  0.036875753    1.6265726 
  778000    388.93473   -7233.7882    3859.3948    1906.0893   -707.74406    11846.945 0.0014986749  0.036834216    1.6265094 
  780000    411.28229   -7232.4129    2775.0363    2287.8505   -4225.5598    13776.647 0.0014961285  0.036795719    1.6271406 
  782000    404.93727   -7232.2159      2818.13    1557.8272   -2126.9066    10991.781  0.001494957   0.03674936    1.6271012 
  784000    407.06422   -7232.9498    1887.1304    318.61644   -2367.8608    13499.185    0.0014922  0.036730002    1.6269189 
  786000    414.77071   -7234.0854    3243.7845     1261.811   -2131.5046    12145.426 0.0014906038  0.036713846    1.6270478 
  788000    412.14148    -7233.187    2290.1447    609.28565   -2500.7906    12564.896 0.0014904846  0.036713649     1.626419 
  790000    390.82931   -7233.8454   -73.575933   -1046.5985   -2522.1769    13889.745 0.0014883214  0.036739727    1.6264385 
  792000    404.55884   -7234.0475     1065.851    264.42145   -1686.2985    10107.238 0.0014831087   0.03668295    1.6272225 
  794000    394.91979   -7234.1643    1718.4429   -1676.7821   -104.01802    11777.075 0.0014811598  0.036655456    1.6272209 
  796000     456.9907   -7233.6521    981.09458   -281.94787    725.55102    13567.772 0.0014759663  0.036634383    1.6271685 
  798000    400.43174   -7233.1217    3621.6815   -685.38504    1016.0589     13544.46 0.0014744139  0.036599653    1.6272035 
  800000    407.01927   -7234.5869    3328.0001   -113.13243   -2143.2801    12639.459 0.0014709246  0.036561172    1.6271891 
  802000    409.92659   -7234.0144     2747.919    1986.4344   -1172.2244    13130.027 0.0014694123   0.03659851    1.6267991 
  804000    388.61163   -7232.8129    3346.3075    781.48065   -3080.9838    13775.358 0.0014711837  0.036645848    1.6264102 
  806000    394.18138    -7233.456    3686.2892    4561.2062    -769.8234    14088.334 0.0014612421  0.036604705    1.6265556 
  808000    397.35591   -7234.1621      2447.52   -1447.0292   -1722.9664    12807.516   0.00146121   0.03652529     1.626664 
  810000    405.03725   -7232.8382    4508.4295    969.66414    707.64194    11581.221 0.0014545791  0.036514839    1.6270827 
  812000    387.73835   -7234.3211    1820.2232    1420.3192    1047.8054    14168.683 0.0014502612  0.036493535    1.6270774 
  814000    393.44705   -7235.0892    3676.4955   -965.68657   -4334.6117    7905.5534 0.0014419549  0.036486224    1.6276015 
  816000    403.67253   -7233.5497    1860.1942    1911.6756   -2595.5399    9336.4762 0.0014350163  0.036595022    1.6273033 
  818000    391.24007   -7233.2198    3745.4055    470.93401   -3243.5796    11504.852 0.0014344286   0.03665698    1.6275589 
  820000    409.33008   -7234.3779    2374.2648     1290.103   -1428.0316    8282.5311 0.0014302861  0.036619894    1.6276839 
  822000    397.18196   -7233.4813    5128.3751   -1362.1605   -1631.8088     12956.57 0.0014291998    0.0366235    1.6271982 
  824000    411.34826   -7233.7215    5044.0677   -1349.9194   -1963.6798    14442.549 0.0014268643  0.036594367    1.6274678 
  826000    403.72031    -7233.915    420.95566   -492.09568   -1812.8276    10032.419  0.001425233  0.036578197    1.6274342 
  828000    404.78959   -7235.0221    3458.5241   -1842.2239   -4262.8543    14203.244 0.0014345501  0.036666877    1.6271927 
  830000    407.31652   -7232.9704    1564.2282    -1399.696   -3467.6253    10943.908 0.0014321418  0.036668932    1.6275295 
  832000    368.47959   -7232.3365      2329.98   -1403.1249   -1464.5568    13440.534 0.0014314179  0.036635761    1.6274433 
  834000    376.14513   -7234.3667    4753.0845    1887.7477   -1968.1667    13682.863 0.0014283419  0.036604228    1.6277808 
  836000    407.44347   -7234.8253    2651.0764   -3136.6144    769.31708    11840.915 0.0014405204  0.036572322     1.627487 
  838000    409.13239   -7234.0452    2973.3809   -170.15686   -2052.6136    12370.759 0.0014311563  0.036572457     1.627651 
  840000    415.40623    -7233.782    3270.5451   -1977.1141   -15.323603    10740.363 0.0014411231  0.036666997    1.6270389 
  842000    398.48213   -7234.1996    2809.6202   -1598.2602    -2141.664    11868.462 0.0014377895  0.036695154    1.6270713 
  844000    398.57629   -7233.1644    3527.3933   -1418.0399    636.49905    12422.359 0.0014325653  0.036677668    1.6274114 
  846000     369.4528   -7233.9522    5305.0731    1454.5146    -2200.168    12368.891 0.0014298953  0.036621229    1.6278014 
  848000    398.37799    -7233.197    4606.1503    767.94523   -3532.2376    12411.449 0.0014389039  0.036637209    1.6283851 
  850000    409.38674   -7235.1366     1582.516   -439.45708    2228.4233    12504.207 0.0014340957  0.036655134    1.6282052 
  852000    390.77954   -7234.5662    5094.8101   -2209.0274   -907.50208    13736.438 0.0014296504  0.036599275    1.6276218 
  854000    420.26305   -7233.2676    3409.7487    599.27544   -2849.7608    13807.191 0.0014225109  0.036770186    1.6278502 
  856000    401.54018   -7234.5126    4373.6119    -2310.183     253.2891    13041.139 0.0014187773  0.036817773    1.6278704 
  858000    416.80495    -7233.336    3724.4927   -7.9185175    127.00698     13145.98 0.0014158979  0.036778422    1.6280614 
  860000    374.23229    -7234.029    3573.8564   -834.04256   -530.10363     11262.64 0.0014182255   0.03673485    1.6280006 
  862000    399.18787   -7232.6986    4080.7403    84.917673   -1342.0968    9800.9456 0.0014465025  0.036770608    1.6283219 
  864000    387.99158   -7233.8124    2982.7611   -1889.0942   -490.24229    11065.056 0.0014399015  0.036728316    1.6285808 
  866000    399.04072   -7235.4993    3261.4125   -759.49123    -2218.056    10280.928 0.0014422007  0.036736304    1.6287859 
  868000    397.53043   -7233.2561    3563.0607    134.49378   -1573.6633    13088.458 0.0014522241  0.036746507    1.6287636 
  870000    408.50336   -7235.4233    5159.4229    572.01881   -4874.9384    12564.894 0.0014565499  0.036837103    1.6289396 
  872000    407.38389   -7234.4049    8139.1738   -218.80962   -275.98417     11532.36  0.001466131   0.03683291    1.6287389 
  874000    382.71853   -7233.8568    3734.9536    2147.1217   -1806.8162    12572.757 0.0014638615  0.036795797    1.6282699 
  876000    410.07061   -7233.4406    3812.1146    1629.6045   -3816.3225    10341.213 0.0014617665  0.036779719    1.6282737 
  878000    447.06127   -7235.1059    4636.8599    2131.0704   -2543.8326    14955.068 0.0014659717  0.036755149    1.6283341 
  880000    392.37714   -7234.1059    2945.2098   -1402.1011    422.81649    12013.074 0.0014684879  0.036768474    1.6286588 
  882000    415.90804   -7232.9901    3580.6819   -1527.6683   -3439.8013    13568.228 0.0014597716  0.036739748    1.6293153 
  884000    432.16892   -7232.8203    1984.6544    710.92137    98.532402    10778.895 0.0014625346  0.036805086    1.6290344 
  886000    395.31513   -7234.8631    2040.9045    701.50485   -326.22365    10632.221 0.0014560475  0.036783252    1.6284977 
  888000    399.11659   -7233.1833      4045.71    2953.2316    -3279.482    11186.166 0.0014593518  0.036760571    1.6283432 
  890000    405.14357   -7233.0164    2512.3106     284.5387   -1014.5024    12395.113 0.0014566291  0.036768506    1.6286136 
  892000    376.21055   -7233.6291    2491.0903    3172.4183   -724.04734    12787.817  0.001455431  0.036746872    1.6287193 
  894000    388.20549   -7232.4525    1169.6228    629.89748   -3711.9418    12252.503 0.0014517615   0.03675413    1.6286191 
  896000    392.91098   -7233.1274    2938.6476    2455.5721   -2249.7737    10152.248  0.001447102  0.036774944    1.6288828 
  898000    382.74955   -7233.1547    3295.6008    3446.8339   -1799.1039    13566.291 0.0014455336  0.036790931    1.6285817 
  900000    378.09449   -7234.7725    5005.4654    802.15455   -1106.1649    12688.623 0.0014646437  0.036794973    1.6290408 
  902000    415.34017   -7234.2339    4025.8088    757.59075   -1833.3976    14378.875  0.001464862  0.036761091    1.6289332 
  904000    421.19073   -7232.6185    5291.0276   -1311.8177   -643.01172     11729.03 0.0014645842  0.036717375    1.6284291 
  906000     395.1232   -7235.3324    5085.9193   -2355.3271   -634.26771    13402.773 0.0014766826  0.036722169    1.6284039 
  908000     381.0043   -7233.7315    4772.6165   -525.00187   -1028.1584    12175.025 0.0014682737  0.036706811    1.6284311 
  910000    399.24493   -7233.5139     5839.725   -159.28347   -1094.0124    13846.853 0.0014765687  0.036673366    1.6280978 
  912000    417.89587   -7232.5263    3879.7927    1193.9419   -1612.7258    12174.686 0.0014937566  0.036684733    1.6279566 
  914000    413.77878   -7235.2828    3863.8442   -16.129118   -1930.1259    11974.734 0.0014885175  0.036654804    1.6282148 
  916000    384.47891   -7234.2821    4565.1642   -720.46321   -532.10022    14224.258 0.0014855831  0.036623027    1.6283497 
  918000    403.17412   -7233.6546     4058.977    378.98857   -2491.7497    13300.092 0.0014892165  0.036582327    1.6282751 
  920000    391.12841   -7233.9049     3948.049   -1073.8978     -1728.98    11438.137 0.0014837774  0.036563263    1.6283125 
  922000    410.24535   -7233.0438    3410.2367   -2181.7332   -2600.1229    11855.653 0.0014882712  0.036587715     1.628262 
  924000    418.57536   -7234.9137    2082.3952   -2755.9933   -1052.6563     11400.73 0.0014894915  0.036608698    1.6280618 
  926000    429.27268   -7232.6301    3762.0199   -2677.6482   -2107.6147    13444.777 0.0014859185  0.036666751    1.6275483 
  928000    404.42048    -7233.557    2307.5968   -4221.7159   -711.06356    11515.969 0.0014824817  0.036666096    1.6275539 
  930000    380.56426    -7235.259      663.222   -588.05069     231.5827    13415.588  0.001482164  0.036632138    1.6278985 
  932000    374.53019   -7232.8599    1884.8002    3394.9577   -4402.1374    12185.576 0.0014816369  0.036592269    1.6284956 
  934000    386.61172   -7234.9247    4307.4591   -861.77163   -913.85275    13150.326 0.0014909894  0.036630714    1.6280548 
  936000    377.14121   -7233.2673    3900.2343    314.00684    -2389.195    11693.066  0.001489141  0.036593358    1.6281627 
  938000    395.21128   -7234.7011    4671.3126    -1526.343   -1593.2974    13058.086 0.0014851683   0.03659316     1.628012 
  940000     388.3587   -7233.4897    2393.0515    1422.0262   -3023.1782     12730.12 0.0014833168  0.036635043    1.6277289 
  942000    429.26928   -7233.8322     2198.026   -855.51038   -2608.0015    13028.735 0.0014835441  0.036701861    1.6274711 
  944000    405.92551    -7235.339    2341.0304    2165.1321   -2970.2257    11827.944 0.0014803368  0.036672535    1.6278633 
  946000      415.774   -7233.9265    3832.1525    1411.6579   -3123.3547    15050.378  0.001480423   0.03664553    1.6283009 
  948000    395.48658   -7233.4614    2150.9585    535.54524   -1606.8081    11667.488 0.0014762247  0.036661788    1.6284473 
  950000    420.49127   -7232.0997    5081.9393    708.59137   -1070.2138     13637.74 0.0014982916  0.036650583    1.6282614 
  952000    404.51532    -7233.535    3844.6086   -603.29936   -3603.4048     12702.45 0.0014911286  0.036685859    1.6282544 
  954000    395.90675   -7233.0869     4257.901    690.50356   -2961.3168    11713.322 0.0015097494   0.03672589    1.6278634 
  956000    396.60337   -7234.8338    5064.2334   -425.13807   -2034.3309    12950.346 0.0014926025  0.036794218     1.627788 
[...]
 7710000     402.6193   -7250.2932     7159.431   -1419.6177   -677.31004    15586.289 0.0057445232  0.046283597    1.9850141 
 7712000    399.26245   -7248.1545    4068.8018   -20.875372    -3636.353    16163.783 0.0057441658   0.04628056     1.985325 
 7714000    392.40982   -7249.8906    5938.2801    129.74308   -2136.7002    19483.957 0.0057426558  0.046293481     1.985684 
 7716000    372.53565   -7249.2702    5463.1951    410.20178   -1972.5055    17962.638 0.0057412221    0.0463089    1.9861137 
 7718000    412.14274    -7249.339    5628.7118    761.87623   -209.62283    16807.202 0.0057394752  0.046308531    1.9865104 
 7720000    415.20017   -7249.1849    7589.7682   -432.19549   -2428.8236    18702.723 0.0057393768  0.046304987    1.9867422 
 7722000     410.2502    -7248.782    6802.1095   -49.464503   -1590.5627    18750.067 0.0057378486  0.046301195    1.9869918 
 7724000    426.50785   -7247.4586    5448.8652    60.977613   -545.04271    20943.439 0.0057365991  0.046299787    1.9873323 
 7726000     393.1198   -7249.7954    5115.3033    -832.7078   -2914.1147    18243.314 0.0057385564  0.046304588    1.9876264 
 7728000    383.51994   -7249.7133    5199.4917    1197.6004   -3036.6179    18924.165 0.0057357081  0.046315356    1.9879019 
 7730000    400.41151   -7249.0314    9012.4786    204.98983   -1982.1985    18912.082 0.0057352729    0.0463363    1.9882403 
 7732000     410.8926   -7249.3375    4258.7505    1214.7754   -3567.6092    19925.659 0.0057358406  0.046362335    1.9887505 
 7734000    379.84492    -7249.119    7011.3914   -2244.4386   -1752.5974    17861.613 0.0057348493   0.04639316    1.9891181 
 7736000    382.42672   -7248.0072    7516.0576   -2277.7617   -2066.1333    18950.004 0.0057344471  0.046401537    1.9894479 
 7738000    418.23921   -7247.9983    6235.7152   -365.10315   -920.59808    16875.772 0.0057336576  0.046403151     1.989782 
 7740000    383.25754   -7248.7171    7657.1803    119.94662   -1520.9758    20481.504 0.0057322966  0.046410946    1.9902212 
 7742000    387.15582   -7249.6756    5250.9273    1225.4692   -2932.6541    16940.376 0.0057340722  0.046416491    1.9907037 
 7744000    392.68647   -7247.9076     7243.024   -2377.7062   -1976.0026    14909.684 0.0057328181    0.0464363    1.9910569 
 7746000    394.08126   -7250.4009    5988.0904   -239.62623   -2475.1288    17336.158 0.0057325535  0.046441084    1.9913477 
 7748000    407.04706   -7248.9958    5248.0432    2705.1298   -4154.1353    18905.263 0.0057308818  0.046458321    1.9917794 
 7750000     431.2645   -7248.6575    5587.1013   -588.53503    -2290.602    18752.673  0.005735015   0.04649063     1.992194 
 7752000    382.35397   -7250.1892    5925.5995    664.89337   -3918.8822    17956.192 0.0057322614  0.046506281     1.992577 
 7754000    381.61067    -7248.105     4687.371    -2355.746   -742.70095    17198.297 0.0057316671  0.046519311     1.992821 
 7756000    410.98215   -7248.6004    5088.7065   -125.44417   -3164.1586      16339.3 0.0057303382  0.046513402    1.9930691 
 7758000    417.91876   -7249.4645     6486.316    1242.2655   -1628.8476    16542.058 0.0057302144  0.046515536    1.9933769 
 7760000    415.58888   -7248.5368    4607.1213    2397.5601   -3606.6648    19340.501 0.0057306595   0.04650894    1.9936857 
 7762000    379.17714   -7248.7303    6189.2528     1487.256   -2745.1836    18959.383 0.0057304455  0.046506258    1.9940823 
 7764000    427.36194   -7248.4509     7791.722   -511.18265   -4183.7081    18908.679 0.0057292486  0.046514376     1.994453 
 7766000    378.51594   -7250.6371    5191.1295   -1288.0569   -2207.0031    17079.845 0.0057281406  0.046522113    1.9948043 
 7768000    413.31777    -7249.592    7453.0331   -227.59291   -3203.7986    17190.212 0.0057256917  0.046518805    1.9951167 
 7770000    383.41603   -7249.2715    4760.7504    787.70935   -3350.3745    19314.985 0.0057253693  0.046514078    1.9953474 
 7772000    398.09542   -7248.9056    7533.2634   -1801.3502   -3621.2307    15835.867 0.0057227156  0.046514142    1.9956416 
 7774000    396.55669   -7249.2571    7016.5466   -485.41895   -2814.2053     17132.19 0.0057286089    0.0465155    1.9958857 
 7776000    395.95777   -7250.2005     5267.064   -146.60841   -1570.1909    16076.453 0.0057277872  0.046521544    1.9961412 
 7778000    383.51602    -7248.909    5190.7459    1041.0018   -3698.8406      16536.8 0.0057265462  0.046524355     1.996439 
 7780000    405.33207   -7247.6943    5979.8168     785.2338   -2603.2634    17879.476 0.0057252513  0.046526201    1.9967621 
 7782000    399.36212   -7248.3074    6079.6811   -134.17831    -4201.173    14667.159 0.0057238608  0.046517676    1.9970131 
 7784000    400.06019   -7248.1246    4751.9912     2144.496   -1296.7774     18269.35 0.0057232806  0.046510538    1.9973936 
 7786000    406.51847    -7250.397    6085.6554    487.05957   -4300.7789    16628.489 0.0057238126  0.046513044    1.9977947 
 7788000    397.12513   -7249.0464    7065.6615    39.443333   -1817.1668    19137.227 0.0057224759   0.04652412    1.9981198 
 7790000    382.09711   -7249.3178    6318.8293    329.59387   -2374.0987    19147.102  0.005720875  0.046520811    1.9985217 
 7792000    383.22525   -7248.9101    8175.5757    380.91407   -1633.0263     19708.59 0.0057195284  0.046519268    1.9988314 
 7794000    421.53094   -7247.8021    7732.9358   -158.93589   -1415.1776    20785.739 0.0057184033  0.046529466    1.9991454 
 7796000    409.02866   -7247.4481    9961.9294   -1099.4759   -2457.9137    16380.074 0.0057169441  0.046542531    1.9995022 
 7798000    416.58744   -7248.4184    8376.8916   -633.35552   -1606.6639    19848.315 0.0057165816  0.046556234    1.9997757 
 7800000    413.99075   -7248.6827    5584.4221    998.26978   -1552.6322    18343.974 0.0057148819  0.046563893    2.0001645 
 7802000    374.65884   -7248.4351    6684.4511    639.64192   -627.15189    15141.253 0.0057137723  0.046571734     2.000465 
 7804000     364.0391   -7250.0558    6457.3909     1956.144   -5129.2945    19287.312 0.0057127597  0.046596966    2.0007634 
 7806000    411.29682     -7249.12    6622.6032   -2392.8102   -1766.5445    16561.011 0.0057115604  0.046596843    2.0010541 
 7808000    400.52645   -7247.9698    5861.6586    830.24375   -3568.4669    19053.411 0.0057101237  0.046594011    2.0013889 
 7810000    428.20258    -7249.114     6301.441   -531.62698   -898.12223    16976.914 0.0057099924  0.046593107    2.0017686 
 7812000    417.26587   -7248.0066    5974.5989   -612.92773   -2181.9434    16657.597 0.0057084449  0.046581192    2.0019894 
 7814000    386.66147   -7250.6416    4893.1615   -363.60463   -2363.5469    15947.053 0.0057073675  0.046574607    2.0022538 
 7816000    401.32607   -7250.0114     4206.022   -627.05864   -2367.3299    17431.033 0.0057074554  0.046563564    2.0024754 
 7818000    412.88392   -7249.9991    7337.9958   -102.61116   -4206.1874    14489.821 0.0057060924  0.046569814    2.0027806 
 7820000    390.54485   -7247.6583    6745.9814   -75.986919   -2922.9161     15999.23 0.0057054208  0.046581258    2.0030275 
 7822000    390.74578   -7249.2591    5105.8303   -357.64555   -4360.0276    17551.937 0.0057057972  0.046595377    2.0034345 
 7824000    409.22825   -7249.1935    7096.2393   -1507.7893    -2343.334    17853.595 0.0057053056   0.04662266    2.0038091 
 7826000     394.6064   -7248.6925    5953.1554    1307.5117     -5419.72    19015.645 0.0057056084  0.046644049    2.0041823 
 7828000     424.5877    -7248.605     5656.114    94.405915   -3175.6497     17990.78 0.0057042016   0.04667812      2.00467 
 7830000    382.72791   -7248.8314    5857.6301    1755.7624   -1963.5839    20053.679 0.0057028306  0.046690991    2.0050702 
 7832000    411.24516   -7248.4017    3113.1118    2453.2329   -2357.4399    19822.907 0.0057014088  0.046695655    2.0055276 
 7834000    370.76057   -7248.0633     4211.163   -1184.1186   -3947.3458    19101.856 0.0057010224  0.046704068    2.0059062 
 7836000    398.72867   -7248.2983    5876.4374    2516.6043   -3050.0753     18434.47 0.0056995919  0.046715998    2.0062777 
 7838000     409.4651   -7249.2461    5336.8588   -177.91366   -2751.7018    17054.135  0.005698446  0.046736868    2.0067038 
 7840000    394.12988   -7248.1353     4579.108    2573.7007   -3206.7925    19601.541 0.0056972276  0.046742581     2.007091 
 7842000    386.64342   -7249.4559    3539.9749   -121.55981   -4007.1547     15592.97 0.0056964674  0.046758816    2.0075119 
 7844000    393.69381   -7249.7447    6330.6166   -11.359912    1285.9081    18893.228 0.0056955757  0.046774283    2.0078483 
 7846000    391.73454   -7248.6215    6539.7256   -670.68405   -2747.1672    16345.187 0.0056941362  0.046780683    2.0082317 
 7848000    379.47673    -7249.414    1511.4984    -1641.747   -2219.6719    16805.925 0.0056920921  0.046789852    2.0084691 
 7850000    388.59795   -7246.8233    6109.1474    2220.6735   -1397.7472    17591.462 0.0056906649  0.046799917    2.0087654 
 7852000    410.93811   -7249.1905    4943.4106    830.55372    -2954.247    13667.159 0.0056891654  0.046806743    2.0091909 
 7854000    400.50694   -7247.2225     6307.298    2123.4687   -1721.5791    15218.798 0.0056880301  0.046812699     2.009545 
 7856000    380.99511   -7248.6902    5525.2679    2152.1581    -3217.511    16481.655 0.0056879714  0.046828933    2.0098404 
 7858000    360.28303   -7248.9577    7047.3414    1948.4731    -2091.133    19162.568 0.0056855165  0.046832207    2.0101767 
 7860000    412.69085   -7248.3468    5712.0832    2040.0162   -1511.6974    18128.601 0.0056845504  0.046838441     2.010527 
 7862000    383.56409   -7249.4932     4738.107    886.45451   -2210.8318    15775.158 0.0056831144  0.046841747    2.0108738 
 7864000    415.12408   -7248.1821    4920.0641    2092.6057   -397.27303    16599.344 0.0056819431  0.046835686    2.0111072 
 7866000    412.91557   -7248.1513    6649.1227    270.08801   -2359.6324    17579.612 0.0056802397  0.046829883    2.0113612 
 7868000    384.21795   -7248.3443    4974.7871     2924.797     -1201.89    16971.254 0.0056799771  0.046822566    2.0116197 
 7870000      418.026   -7248.3847     5593.851   -446.82795   -4874.0997    15978.698 0.0056787042  0.046822913    2.0119329 
 7872000    401.79011   -7249.1957    7887.3875   -639.82555   -2205.7507    18686.513 0.0056780001  0.046829416    2.0122518 
 7874000    450.65709   -7249.4921    5251.7173   -3947.3034   -2854.0493    16640.534  0.005677566  0.046830678    2.0125465 
 7876000    415.84132   -7249.2772    7914.9333      -558.63   -3701.4808    13595.346  0.005676564  0.046827129    2.0127777 
 7878000    400.40606   -7248.4521      5680.53    1660.0253   -3152.2501    18935.925 0.0056753699  0.046830412    2.0130662 
 7880000    378.62918   -7248.1079    8762.4587   -3037.1698   -3544.9583    16717.935 0.0056744444  0.046834496    2.0134342 
 7882000    400.50409   -7249.9629    6417.5185    145.61939   -3734.6839    15117.731 0.0056774987  0.046844929    2.0136562 
 7884000     384.0078   -7248.9489    8017.5876   -551.42762   -1446.6755    17067.682 0.0056780654  0.046856014    2.0138474 
 7886000    406.70318   -7250.0149    7859.6816   -812.27772   -1570.0179    17300.274 0.0056768553  0.046856075    2.0141732 
 7888000    401.60155   -7249.8533    6193.9888   -1813.5393    -1351.883    18401.464 0.0056755243  0.046859589    2.0145087 
 7890000    425.25889   -7249.5415     8913.102    1345.6591   -3495.7131    16338.757 0.0056744514  0.046881265    2.0148324 
 7892000    414.49085   -7249.2546    7364.9713    380.96264   -1411.3966    16446.185 0.0056728567  0.046899589    2.0151252 
 7894000    396.15265   -7248.1069    6581.6739   -1452.4481    -2899.411    18300.927 0.0056714786  0.046906447    2.0154995 
 7896000    381.45717   -7248.1651    6450.4406    40.649037   -124.34264    21357.977 0.0056704629  0.046907218    2.0158501 
 7898000     375.3191   -7247.2114    7128.7789     1205.292   -1034.1047    14459.713 0.0056692918  0.046909217     2.016234 
 7900000    387.04479   -7249.3786    5598.8093    2581.3121   -3310.5909    19522.606 0.0056680711  0.046908916    2.0164957 
 7902000     412.8712   -7249.1562    6961.9433   -989.64054   -4893.8685    17582.348  0.005667477   0.04691154    2.0168316 
 7904000    406.31414   -7248.4304    5104.5512   -12.899083   -4989.3373    19402.297 0.0056658753  0.046924395    2.0172247 
 7906000    426.93285   -7249.1365    4355.7924   -97.803824   -5188.8395    16572.045 0.0056645347  0.046951148    2.0176401 
 7908000    410.39324   -7248.4646    7275.5903   -1181.7048   -2540.2899    17432.509 0.0056630406  0.046973251    2.0179893 
 7910000    393.70745   -7248.9479    2992.7022   -978.87084   -4597.2644    18464.905 0.0056626106   0.04698887    2.0183684 
 7912000    384.39647   -7247.3531    4987.3624    474.78086   -2659.4432    14268.272 0.0056614126  0.047009343    2.0187681 
 7914000     394.0393    -7249.218    4690.4485    1804.2201   -1990.5167    17669.046 0.0056622645  0.047019507    2.0190736 
 7916000    366.81667   -7247.8339     8354.655    4616.9057   -2614.2941    14783.086 0.0056608429  0.047021196    2.0193315 
 7918000    420.42107   -7249.7245    5829.4655    1335.8751   -1754.5928    15854.924 0.0056587566  0.047022246    2.0196571 
 7920000    394.62562   -7249.0855    8642.4064   -765.88129    -2020.656    18195.089 0.0056569168  0.047027488    2.0199772 
 7922000    386.67419   -7248.5062    7373.0339   -256.70461   -2151.7348    16324.862 0.0056563286  0.047027301    2.0202499 
 7924000    412.48114   -7249.0402    8829.1705     2701.888    487.52233    19394.511 0.0056551477  0.047026435    2.0205143 
 7926000    381.88746   -7248.4229    7025.9268   -1872.8164   -2247.4236    17558.174 0.0056537787  0.047021703    2.0207917 
 7928000    402.69959   -7250.6559    8842.2225   -666.46687    16.019984    15724.146    0.0056519  0.047036247    2.0210843 
 7930000    405.49425   -7248.0649    8055.6502   -615.00621   -1144.2774    20350.432 0.0056506586  0.047035756    2.0213317 
 7932000    401.82736   -7248.7066    7918.9202   -391.00578   -265.14218    18984.296 0.0056490604  0.047030961     2.021609 
 7934000    410.10563   -7247.9562    10351.118   -206.98617    -2131.925    18001.835  0.005649845  0.047033669    2.0219517 
 7936000    391.02661   -7248.6387    8201.8454   -2303.6097   -2538.7148    18185.602 0.0056482356  0.047035196    2.0222557 
 7938000    384.44466   -7248.1229    7610.3135   -1112.4389   -63.992224    16453.658 0.0056482123  0.047033631     2.022565 
 7940000    398.78231   -7248.4553    5490.9955   -949.02236   -4733.5592     16679.23 0.0056476122  0.047042062    2.0228389 
 7942000    406.78013   -7251.1323    5807.1344    -2516.597   -1050.1867    18129.989 0.0056491601  0.047056875    2.0231422 
 7944000    387.12233   -7249.1347    7051.3517   -1487.1178   -2075.5614     17757.85 0.0056482654  0.047058567    2.0234401 
 7946000    409.98782    -7248.921    3883.4099   -343.11157    -1528.285    16629.698 0.0056488224  0.047056122    2.0237219 
 7948000    427.86995   -7247.8229    8796.6145    222.22141   -715.46128    15910.001 0.0056473207  0.047049119    2.0239571 
 7950000    400.53483   -7248.8243     5184.766    1561.0677   -2437.4487    14394.941 0.0056464697  0.047044838    2.0242054 
 7952000    404.54429   -7248.6443    8020.7386    580.37468   -2520.3899    19135.149 0.0056455502  0.047045507    2.0244301 
 7954000    402.39818   -7248.3434    3845.8075    2774.2301   -1601.9716    20971.162 0.0056444535  0.047052087    2.0247718 
 7956000    392.05391   -7248.0091    8033.2141    1128.0888   -1700.8908    18462.103 0.0056430494  0.047047567    2.0250627 
 7958000    401.43973   -7251.3795    6266.5128   -1645.3319   -2960.7039    17675.485 0.0056417393  0.047043122    2.0253256 
 7960000    369.74498   -7248.3715    6192.9728    1164.2622   -3807.4579    15484.664 0.0056425638  0.047039707    2.0255697 
 7962000    363.66291   -7249.8704    7087.6602   -1717.9775   -704.42166    16713.742 0.0056426795  0.047039433    2.0257565 
 7964000    404.00824   -7248.1666    5421.4376   -502.26636   -1648.6805    17190.343 0.0056409663  0.047043506    2.0260813 
 7966000     397.1459    -7248.198    6515.1011    -673.9929   -699.58989    20445.385 0.0056417694    0.0470592    2.0265146 
 7968000    385.25946   -7247.8565    5806.6291   -743.17895   -3764.3768     16018.68 0.0056411902  0.047074766    2.0268679 
 7970000    437.49286   -7250.0787      7346.46   -1608.6158   -3166.2254    16663.969  0.005640194  0.047092371    2.0272061 
 7972000    410.77395    -7248.236    7025.9058   -1799.4047    -1796.854    17874.239 0.0056393237  0.047101378    2.0276089 
 7974000    421.84686   -7249.2098    5060.1036    157.54973   -2733.5644    17935.846 0.0056380597  0.047121791    2.0279598 
 7976000    412.64756   -7249.7012    6803.9761    1732.9102   -1713.6821    17887.601  0.005636569  0.047142473    2.0282948 
 7978000    433.94864   -7250.6024     6650.366   -1678.1438   -3155.5365    17649.528 0.0056350498  0.047140368    2.0286868 
 7980000     404.4771   -7249.6394    3427.0503     469.9197   -2879.7677    18299.777 0.0056336283  0.047140032    2.0290176 
 7982000     396.5419   -7249.0568    7381.5409    3353.1225    -3468.058    17287.895 0.0056322555  0.047147423    2.0293794 
 7984000    408.85902   -7247.6303    9253.0552    2224.6986   -2717.2234    18230.755 0.0056337952  0.047158762    2.0297912 
 7986000    384.64016   -7249.8405    6534.7249   -84.770256   -2974.9284    17049.845  0.005633538  0.047170493    2.0302187 
 7988000    424.50911   -7249.0887    7736.8997   -969.03299   -1178.1191    16985.953 0.0056323534  0.047183301    2.0305363 
 7990000    399.81891   -7249.7673    7489.6735   -892.70627   -2671.2189    20187.154 0.0056309007  0.047196415     2.030854 
 7992000     413.9553   -7250.7468    8715.3032    -489.6339   -1744.7089    15833.667 0.0056301138  0.047212427    2.0311681 
 7994000    419.49988   -7249.2824    6984.9049   -749.38049   -3057.9448    19341.496 0.0056289673  0.047221645    2.0314422 
 7996000    399.62984    -7247.961    4162.0466    -29.94249   -69.244871    16698.694 0.0056273752  0.047230373    2.0317436 
 7998000     383.7432   -7249.2725    6306.0797   -1466.3627   -813.63722    18131.614 0.0056274843  0.047227409    2.0320859 
 8000000    423.64872   -7248.8463    9661.9151    -2888.454    -2735.838    17384.674 0.0056262401  0.047225242    2.0323302 
Loop time of 430673 on 1 procs for 8000000 steps with 400 atoms

Performance: 0.080 ns/day, 299.079 hours/ns, 18.576 timesteps/s
95.4% CPU use with 1 MPI tasks x no OpenMP threads

MPI task timing breakdown:
Section |  min time  |  avg time  |  max time  |%varavg| %total
---------------------------------------------------------------
Pair    | 4.3005e+05 | 4.3005e+05 | 4.3005e+05 |   0.0 | 99.86
Bond    | 123.31     | 123.31     | 123.31     |   0.0 |  0.03
Neigh   | 2.2044     | 2.2044     | 2.2044     |   0.0 |  0.00
Comm    | 302.98     | 302.98     | 302.98     |   0.0 |  0.07
Output  | 3.6414     | 3.6414     | 3.6414     |   0.0 |  0.00
Modify  | 107.69     | 107.69     | 107.69     |   0.0 |  0.03
Other   |            | 80.7       |            |       |  0.02

Nlocal:    400 ave 400 max 400 min
Histogram: 1 0 0 0 0 0 0 0 0 0
Nghost:    7021 ave 7021 max 7021 min
Histogram: 1 0 0 0 0 0 0 0 0 0
Neighs:    184523 ave 184523 max 184523 min
Histogram: 1 0 0 0 0 0 0 0 0 0

Total # of neighbors = 184523
Ave neighs/atom = 461.308
Ave special neighs/atom = 1.5
Neighbor list builds = 376
Dangerous builds = 0
variable     ndens equal count(all)/vol
print        "average viscosity: $v [Pa.s] @ $T K, ${ndens} /A^3"
average viscosity: 0.695060569610757 [Pa.s] @ 400 K, 0.00674435684260222 /A^3
Total wall time: 122:00:50
