ITEM: TIMESTEP
0
ITEM: NUMBER OF ATOMS
160
ITEM: BOX BOUNDS pp pp pp
-4.0000000000000000e+01 4.0000000000000000e+01
-4.0000000000000000e+01 4.0000000000000000e+01
-4.0000000000000000e+01 4.0000000000000000e+01
ITEM: ATOMS id mass type x y z 
98 67 2 -39.7606 -32.9289 -38.5958 
99 15 3 -38.5677 -30.9368 -39.9535 
100 29 4 39.2864 -33.8146 -35.8472 
39 86.8 1 -16.156 -13.3535 -32.9216 
80 67 2 18.0709 -15.2414 -33.552 
81 15 3 18.8192 -17.5833 -32.461 
82 29 4 15.7137 -13.6906 -34.6859 
50 67 2 27.8684 -15.3072 -37.487 
51 15 3 27.0469 -13.204 -38.9485 
132 15 3 29.8991 -13.6806 -30.3279 
52 29 4 30.2465 -16.5196 -36.0303 
15 86.8 1 -10.805 -0.25449 -37.2088 
23 86.8 1 10.6912 6.56633 -39.6724 
60 15 3 -28.8016 18.875 -38.7411 
59 67 2 -31.0293 20.1598 -39.5295 
56 67 2 -28.4115 27.7147 -35.2537 
57 15 3 -27.6224 25.1594 -34.9669 
58 29 4 -28.6973 29.9993 -37.2402 
17 86.8 1 -5.49156 23.3027 -31.7598 
78 15 3 1.8091 22.1818 -39.0194 
26 86.8 1 -11.4076 33.0511 -30.9969 
4 86.8 1 -0.921555 31.4227 -38.5649 
34 86.8 1 10.3028 38.9862 -39.2581 
142 29 4 -32.2577 -39.7795 -20.6511 
9 86.8 1 29.0907 -33.235 -21.3637 
121 29 4 20.692 -32.2635 -20.7459 
119 67 2 19.5337 -29.4986 -21.2571 
120 15 3 20.001 -27.119 -22.4205 
20 86.8 1 28.7539 -12.8915 -27.5041 
131 67 2 27.232 -13.6428 -29.9816 
133 29 4 24.9466 -14.7501 -28.3089 
37 86.8 1 -26.977 37.0688 -25.3265 
27 86.8 1 -5.67109 -34.0726 -17.9854 
53 67 2 9.09742 -33.817 -10.2096 
55 29 4 6.61679 -34.2993 -11.9011 
36 86.8 1 -38.6043 -22.1061 -16.6375 
6 86.8 1 23.8607 -12.786 -14.7544 
31 86.8 1 -1.50903 -2.29971 -11.1654 
70 29 4 -4.69551 -0.787675 -18.2909 
68 67 2 -5.37584 1.57929 -16.5072 
69 15 3 -4.33667 3.64642 -15.1353 
3 86.8 1 -36.8171 14.2976 -19.4253 
104 67 2 -29.2217 14.6175 -10.0595 
105 15 3 -28.3787 13.5974 -12.4012 
140 67 2 -32.4112 37.8297 -18.7782 
141 15 3 -31.2414 36.6273 -16.6757 
149 67 2 -17.6286 35.2958 -14.2897 
150 15 3 -15.4892 36.9236 -14.2019 
151 29 4 -18.5117 32.3916 -14.4727 
115 29 4 18.4168 30.4831 -18.6517 
113 67 2 20.387 32.4428 -19.8866 
114 15 3 22.8335 33.5304 -19.6286 
54 15 3 11.5826 -34.6999 -9.68115 
145 29 4 -0.0290965 -28.3139 -2.0809 
143 67 2 0.715832 -25.3828 -1.76334 
144 15 3 2.43594 -23.4715 -2.55266 
122 67 2 38.6261 -22.7151 -5.47473 
123 15 3 39.652 -21.8436 -7.80341 
124 29 4 37.3554 -25.099 -4.07835 
125 67 2 -36.8296 -17.9695 -4.78929 
126 15 3 -35.1415 -16.0263 -5.56971 
127 29 4 -38.5432 -18.9685 -2.48434 
44 67 2 2.73372 -12.2714 -3.20626 
45 15 3 5.07382 -12.3746 -4.5284 
46 29 4 0.486709 -13.9528 -2.03528 
91 29 4 1.81825 -11.2423 -4.2634 
71 67 2 16.1497 -11.0825 -4.00909 
72 15 3 18.8343 -11.2316 -3.93576 
73 29 4 13.5794 -12.6292 -3.51032 
90 15 3 -1.37928 -7.40213 -6.44892 
89 67 2 0.730328 -9.01645 -6.02669 
116 67 2 -30.0062 8.29125 -4.63363 
118 29 4 -30.3442 5.44833 -5.65875 
18 86.8 1 -27.1548 9.41929 -9.98672 
117 15 3 -29.5393 9.77844 -2.44159 
7 86.8 1 22.1578 5.48786 -5.50354 
106 29 4 -30.6603 13.9657 -7.46092 
148 29 4 3.90088 11.1397 -1.50406 
108 15 3 -29.1279 22.6288 -0.531135 
2 86.8 1 7.29414 32.6479 -7.57523 
14 86.8 1 4.3055 -37.4315 9.39068 
32 86.8 1 22.9409 -32.624 9.22324 
38 86.8 1 16.9722 -28.6115 7.058 
1 86.8 1 -39.161 -19.1491 0.890539 
137 67 2 -13.9535 -12.2349 3.56335 
138 15 3 -12.8665 -10.3492 5.14355 
139 29 4 -14.1223 -15.2281 3.05391 
28 86.8 1 39.1683 -18.9824 2.40829 
10 86.8 1 -19.8872 -4.86895 7.63172 
16 86.8 1 -8.07335 -8.75822 0.604183 
29 86.8 1 -3.90748 7.0544 3.26793 
109 29 4 -33.1542 19.9149 1.95308 
146 67 2 1.9445 10.9902 0.819203 
147 15 3 1.48216 11.8133 3.33782 
107 67 2 -31.5893 21.9295 0.297933 
74 67 2 -16.0867 -30.8016 16.399 
76 29 4 -16.4474 -33.6371 17.4368 
101 67 2 -6.8918 -31.2178 15.883 
103 29 4 -6.23186 -34.1709 16.1843 
75 15 3 -14.4377 -28.6766 16.3867 
86 67 2 -4.41535 -25.7301 10.722 
87 15 3 -6.19312 -23.7315 10.4389 
88 29 4 -1.77661 -26.5191 12.0111 
102 15 3 -8.11597 -29.1262 17.0498 
30 86.8 1 -35.8338 -18.1154 14.9413 
5 86.8 1 -0.514897 -13.8698 11.0873 
11 86.8 1 26.393 -12.3701 14.9609 
92 67 2 -17.765 7.00213 12.3528 
93 15 3 -15.2213 7.6051 11.7198 
94 29 4 -19.5763 4.84404 13.4971 
155 67 2 -18.2647 6.44077 12.9538 
156 15 3 -19.4098 4.25586 11.8816 
157 29 4 -17.1443 9.19729 12.3263 
128 67 2 -32.7653 18.4811 15.581 
129 15 3 -35.3887 18.3981 16.1687 
66 15 3 -20.9616 11.0674 10.8534 
130 29 4 -29.9733 18.0151 16.6921 
65 67 2 -19.2047 11.3133 12.8751 
67 29 4 -17.1077 13.1354 14.112 
21 86.8 1 -21.1885 -35.1457 26.4985 
160 29 4 30.9204 -37.9912 28.7973 
8 86.8 1 -17.9652 -21.7039 22.7922 
62 67 2 -1.18749 -27.4951 29.6473 
63 15 3 -3.64463 -27.1462 28.6103 
134 67 2 9.77863 -26.6274 26.0619 
136 29 4 9.64481 -28.9427 24.0951 
135 15 3 11.0162 -25.7057 28.265 
110 67 2 35.6574 -27.8252 24.9217 
111 15 3 33.7768 -28.1313 23.0231 
112 29 4 36.5453 -26.0906 27.2561 
12 86.8 1 8.19587 -12.022 26.709 
42 15 3 -37.703 -3.17059 29.031 
152 67 2 19.1917 -0.0486527 22.6633 
153 15 3 19.3608 -2.72683 22.4801 
25 86.8 1 -16.831 1.22978 28.9206 
83 67 2 10.5597 9.819 24.814 
85 29 4 10.8643 6.9113 23.9775 
154 29 4 20.5515 2.56527 21.9111 
40 86.8 1 -33.0376 16.9085 21.8025 
84 15 3 11.8496 11.9336 25.8624 
24 86.8 1 25.9009 35.8006 20.0383 
158 67 2 31.8098 39.2725 27.813 
159 15 3 33.8224 37.4885 27.8526 
19 86.8 1 -6.79422 -30.4281 34.6635 
22 86.8 1 0.331293 -31.9656 34.3006 
64 29 4 0.514636 -29.3041 31.4017 
41 67 2 -38.1057 -3.11269 31.6898 
43 29 4 -39.7866 -4.24956 33.9546 
95 67 2 -1.49194 -2.96999 30.3131 
96 15 3 -3.43845 -1.12111 30.1472 
97 29 4 -0.739257 -5.65651 31.5228 
33 86.8 1 -24.9414 9.94055 30.8116 
13 86.8 1 18.8545 7.20409 39.2077 
61 29 4 -33.8408 19.7765 39.377 
77 67 2 2.68142 23.1159 38.6138 
79 29 4 4.49549 22.5237 36.2462 
47 67 2 -14.0457 34.5657 35.9556 
48 15 3 -14.3124 35.0711 33.3272 
49 29 4 -14.9319 35.4259 38.7344 
35 86.8 1 29.1662 36.7299 38.7815 
ITEM: TIMESTEP
43
ITEM: NUMBER OF ATOMS
160
ITEM: BOX BOUNDS pp pp pp
-4.0000000000000000e+01 4.0000000000000000e+01
-4.0000000000000000e+01 4.0000000000000000e+01
-4.0000000000000000e+01 4.0000000000000000e+01
ITEM: ATOMS id mass type x y z 
98 67 2 -39.7596 -32.928 -38.5985 
99 15 3 -38.5667 -30.9355 -39.9554 
100 29 4 39.2844 -33.8169 -35.8426 
39 86.8 1 -16.156 -13.3535 -32.9216 
80 67 2 18.0732 -15.2429 -33.5509 
81 15 3 18.8207 -17.585 -32.4599 
82 29 4 15.71 -13.6872 -34.6881 
50 67 2 27.8661 -15.306 -37.4884 
51 15 3 27.0454 -13.2024 -38.9499 
132 15 3 29.9027 -13.6791 -30.3233 
52 29 4 30.2503 -16.5223 -36.0274 
15 86.8 1 -10.805 -0.25449 -37.2088 
23 86.8 1 10.6912 6.56633 -39.6724 
60 15 3 -28.7993 18.8747 -38.7402 
59 67 2 -31.0265 20.1601 -39.5284 
56 67 2 -28.4112 27.7124 -35.2517 
57 15 3 -27.6219 25.1571 -34.9659 
58 29 4 -28.698 30.0038 -37.2432 
17 86.8 1 -5.49156 23.3027 -31.7598 
78 15 3 1.80784 22.1817 -39.0173 
26 86.8 1 -11.4076 33.051 -30.9969 
4 86.8 1 -0.921554 31.4227 -38.5649 
34 86.8 1 10.3028 38.9862 -39.2581 
142 29 4 -32.2581 -39.7755 -20.6548 
9 86.8 1 29.0907 -33.235 -21.3637 
121 29 4 20.6934 -32.2686 -20.7446 
119 67 2 19.5326 -29.4959 -21.2576 
120 15 3 20.0007 -27.1166 -22.4213 
20 86.8 1 28.7512 -12.8955 -27.517 
131 67 2 27.2357 -13.6382 -29.9772 
133 29 4 24.9419 -14.7522 -28.3051 
37 86.8 1 -26.977 37.0688 -25.3265 
27 86.8 1 -5.67109 -34.0726 -17.9854 
53 67 2 9.09988 -33.8166 -10.2079 
55 29 4 6.61202 -34.2995 -11.9038 
36 86.8 1 -38.6043 -22.1061 -16.6375 
6 86.8 1 23.8607 -12.786 -14.7544 
31 86.8 1 -1.50904 -2.29971 -11.1654 
70 29 4 -4.69503 -0.792078 -18.2942 
68 67 2 -5.37645 1.58163 -16.5054 
69 15 3 -4.33653 3.64846 -15.1339 
3 86.8 1 -36.8171 14.2976 -19.4253 
104 67 2 -29.2203 14.618 -10.0621 
105 15 3 -28.3776 13.597 -12.4034 
140 67 2 -32.4113 37.8273 -18.7763 
141 15 3 -31.2409 36.6256 -16.6739 
149 67 2 -17.6277 35.2986 -14.2895 
150 15 3 -15.4878 36.9257 -14.2018 
151 29 4 -18.514 32.3867 -14.473 
115 29 4 18.4127 30.4798 -18.65 
113 67 2 20.389 32.4447 -19.8878 
114 15 3 22.8355 33.5318 -19.6291 
54 15 3 11.5849 -34.7001 -9.6801 
145 29 4 -0.0309912 -28.3191 -2.08098 
143 67 2 0.716605 -25.3799 -1.76306 
144 15 3 2.43706 -23.4693 -2.55285 
122 67 2 38.6274 -22.7128 -5.47608 
123 15 3 39.6531 -21.842 -7.80504 
124 29 4 37.3531 -25.1028 -4.0752 
125 67 2 -36.8285 -17.9686 -4.79044 
126 15 3 -35.1404 -16.0256 -5.57091 
127 29 4 -38.5462 -18.9706 -2.47872 
44 67 2 2.49991 -12.1815 -3.58265 
45 15 3 5.01655 -12.1979 -4.52936 
46 29 4 0.432695 -13.8003 -2.03364 
91 29 4 1.94605 -11.3519 -4.0955 
71 67 2 16.1522 -11.081 -4.00957 
72 15 3 18.8367 -11.231 -3.93596 
73 29 4 13.5744 -12.6313 -3.50964 
90 15 3 -1.26729 -7.55417 -6.35031 
89 67 2 0.835635 -9.17393 -5.9175 
116 67 2 -30.0058 8.29406 -4.63262 
118 29 4 -30.3449 5.44355 -5.66131 
18 86.8 1 -27.155 9.41961 -9.98674 
117 15 3 -29.539 9.78051 -2.44017 
7 86.8 1 22.1578 5.48786 -5.50354 
106 29 4 -30.6627 13.9652 -7.45601 
148 29 4 3.90391 11.1395 -1.50861 
108 15 3 -29.126 22.6301 -0.532299 
2 86.8 1 7.29414 32.6479 -7.57523 
14 86.8 1 4.3055 -37.4315 9.39068 
32 86.8 1 22.9409 -32.6239 9.22324 
38 86.8 1 16.9722 -28.6115 7.05801 
1 86.8 1 -39.2131 -19.1437 0.935128 
137 67 2 -13.9533 -12.2319 3.56389 
138 15 3 -12.8659 -10.3469 5.14449 
139 29 4 -14.1231 -15.2333 3.05242 
28 86.8 1 39.221 -18.9877 2.36026 
10 86.8 1 -19.8872 -4.86895 7.63172 
16 86.8 1 -8.07338 -8.75824 0.604206 
29 86.8 1 -3.90745 7.05442 3.26793 
109 29 4 -33.1576 19.9117 1.95586 
146 67 2 1.9426 10.9901 0.82152 
147 15 3 1.481 11.8136 3.34006 
107 67 2 -31.5877 21.9315 0.296314 
74 67 2 -16.0862 -30.7988 16.398 
76 29 4 -16.4487 -33.6422 17.4383 
101 67 2 -6.89248 -31.2148 15.8827 
103 29 4 -6.23033 -34.1761 16.1842 
75 15 3 -14.4367 -28.6743 16.3862 
86 67 2 -4.41795 -25.7293 10.7208 
87 15 3 -6.19518 -23.7303 10.4381 
88 29 4 -1.77197 -26.5212 12.0131 
102 15 3 -8.11687 -29.1238 17.0502 
30 86.8 1 -35.8338 -18.1154 14.9413 
5 86.8 1 -0.514898 -13.8698 11.0873 
11 86.8 1 26.393 -12.3701 14.9609 
92 67 2 -17.7091 7.05603 12.3479 
93 15 3 -15.1792 7.69116 11.691 
94 29 4 -19.5558 4.76463 13.1444 
155 67 2 -18.292 6.44426 13.0908 
156 15 3 -19.5208 4.24459 12.1508 
157 29 4 -17.131 9.15236 12.3081 
128 67 2 -32.7681 18.4816 15.58 
129 15 3 -35.3912 18.3983 16.1685 
66 15 3 -20.963 11.0647 10.8529 
130 29 4 -29.968 18.0145 16.6935 
65 67 2 -19.2011 11.3068 12.8706 
67 29 4 -17.1034 13.1368 14.1154 
21 86.8 1 -21.1885 -35.1457 26.4985 
160 29 4 30.9181 -37.9864 28.7987 
8 86.8 1 -17.9652 -21.7039 22.7922 
62 67 2 -1.18911 -27.4938 29.6459 
63 15 3 -3.64632 -27.1452 28.6091 
134 67 2 9.77879 -26.6251 26.0639 
136 29 4 9.64403 -28.9465 24.0912 
135 15 3 11.0168 -25.7041 28.267 
110 67 2 35.6565 -27.8269 24.9194 
111 15 3 33.7755 -28.1322 23.0211 
112 29 4 36.5475 -26.0879 27.2604 
12 86.8 1 8.19587 -12.022 26.709 
42 15 3 -37.702 -3.17007 29.0287 
152 67 2 19.1904 -0.0512528 22.664 
153 15 3 19.3602 -2.72927 22.4804 
25 86.8 1 -16.831 1.22978 28.9206 
83 67 2 10.5594 9.82187 24.8148 
85 29 4 10.8641 6.9061 23.9758 
154 29 4 20.5533 2.57032 21.9101 
40 86.8 1 -33.0376 16.9086 21.8023 
84 15 3 11.85 11.936 25.8633 
24 86.8 1 25.9009 35.8006 20.0383 
158 67 2 31.8108 39.2699 27.8121 
159 15 3 33.8237 37.4864 27.8522 
19 86.8 1 -6.79418 -30.4281 34.6634 
22 86.8 1 0.331327 -31.9647 34.2996 
64 29 4 0.517882 -29.3074 31.4053 
41 67 2 -38.1041 -3.1116 31.6875 
43 29 4 -39.7892 -4.25117 33.9591 
95 67 2 -1.49273 -2.96734 30.312 
96 15 3 -3.43967 -1.119 30.1465 
97 29 4 -0.737241 -5.66126 31.5246 
33 86.8 1 -24.9414 9.94055 30.8116 
13 86.8 1 18.8545 7.20409 39.2077 
61 29 4 -33.8459 19.7765 39.3751 
77 67 2 2.67964 23.1164 38.6162 
79 29 4 4.49852 22.5233 36.2416 
47 67 2 -14.0449 34.5649 35.9528 
48 15 3 -14.3121 35.0709 33.3247 
49 29 4 -14.933 35.4269 38.7397 
35 86.8 1 29.1662 36.7299 38.7815 
ITEM: TIMESTEP
2000
ITEM: NUMBER OF ATOMS
160
ITEM: BOX BOUNDS pp pp pp
-4.0000000000000000e+01 4.0000000000000000e+01
-4.0000000000000000e+01 4.0000000000000000e+01
-4.0000000000000000e+01 4.0000000000000000e+01
ITEM: ATOMS id mass type x y z 
98 67 2 -39.6471 -31.9357 -38.456 
100 29 4 38.8674 -33.1302 -36.079 
99 15 3 -38.5984 -29.6644 -39.4718 
39 86.8 1 -16.2442 -13.4833 -32.4649 
80 67 2 17.8473 -15.3057 -33.9077 
81 15 3 18.8104 -17.5196 -32.7336 
82 29 4 15.3408 -13.9821 -35.0056 
50 67 2 28.404 -15.1364 -37.9336 
51 15 3 27.4294 -12.799 -38.8628 
132 15 3 29.5211 -13.8386 -30.9126 
52 29 4 30.6391 -16.4032 -36.2956 
15 86.8 1 -11.298 0.136655 -37.1525 
23 86.8 1 10.3551 6.36655 -39.3179 
60 15 3 -29.367 18.8725 -38.1107 
59 67 2 -31.4893 20.0337 -39.2839 
56 67 2 -28.3734 28.024 -35.5069 
57 15 3 -27.1912 25.5924 -35.6036 
17 86.8 1 -5.36029 23.5441 -32.1484 
78 15 3 0.441317 22.3383 -39.7254 
58 29 4 -28.9901 30.5355 -37.1146 
26 86.8 1 -11.3739 33.213 -31.025 
4 86.8 1 -1.89031 31.0488 -38.1069 
34 86.8 1 10.0778 39.4632 -39.0972 
142 29 4 -31.7071 -39.8458 -20.4347 
9 86.8 1 29.3725 -32.9014 -21.4917 
121 29 4 19.9833 -32.4328 -21.2372 
119 67 2 20.1672 -29.393 -21.0231 
120 15 3 21.7243 -27.2659 -21.5108 
20 86.8 1 28.8011 -13.0807 -27.9472 
131 67 2 27.2138 -13.3768 -29.6248 
133 29 4 25.0631 -14.6493 -27.8693 
37 86.8 1 -26.8483 36.8202 -25.3516 
113 67 2 20.2216 32.2555 -20.0746 
114 15 3 22.3693 32.7317 -21.6032 
27 86.8 1 -5.45697 -33.8596 -18.0693 
53 67 2 8.7708 -34.616 -10.0397 
55 29 4 6.20776 -34.1682 -11.6356 
54 15 3 11.4577 -34.7272 -10.2166 
36 86.8 1 -38.9517 -21.9903 -16.2738 
6 86.8 1 23.7488 -12.579 -15.0051 
31 86.8 1 -1.6943 -2.2808 -11.792 
70 29 4 -4.86055 -0.314896 -18.8866 
18 86.8 1 -27.0747 9.68028 -10.1557 
68 67 2 -5.20641 1.58603 -16.5337 
69 15 3 -4.21033 3.77665 -15.3314 
3 86.8 1 -36.743 14.2668 -19.8133 
104 67 2 -29.1183 14.5893 -10.3325 
105 15 3 -28.095 13.5212 -12.5894 
140 67 2 -32.9848 37.808 -18.9502 
141 15 3 -32.4964 35.4285 -17.8211 
149 67 2 -17.1483 35.2493 -13.8474 
150 15 3 -14.7102 36.3617 -13.8766 
151 29 4 -18.6725 32.6052 -13.882 
115 29 4 18.8265 30.1477 -18.366 
145 29 4 0.245489 -27.935 -2.62457 
143 67 2 0.5448 -24.99 -1.90089 
144 15 3 1.77596 -22.6929 -2.55408 
122 67 2 38.331 -22.5348 -4.8093 
123 15 3 38.7988 -21.4739 -7.24709 
124 29 4 37.9064 -25.1377 -3.27896 
125 67 2 -36.5442 -17.5442 -4.99572 
126 15 3 -35.005 -15.656 -6.13687 
127 29 4 -37.1624 -18.9697 -2.37332 
44 67 2 2.49264 -12.498 -3.02564 
45 15 3 4.64345 -11.7724 -4.48006 
46 29 4 0.781099 -14.8653 -2.13764 
91 29 4 2.80768 -12.0652 -4.03874 
71 67 2 16.1243 -11.1231 -3.91262 
72 15 3 18.4078 -10.3095 -2.7291 
73 29 4 13.7164 -12.9757 -3.62204 
90 15 3 -0.812675 -8.42256 -5.88361 
89 67 2 1.52901 -9.54733 -5.18738 
118 29 4 -30.0168 4.76285 -5.48753 
116 67 2 -29.753 7.72025 -4.79929 
117 15 3 -29.1379 9.45649 -2.85477 
7 86.8 1 22.3845 5.56078 -5.63374 
106 29 4 -31.0954 14.1636 -8.06067 
148 29 4 4.22083 11.6587 -0.950085 
107 67 2 -31.399 21.9825 -0.169378 
108 15 3 -29.1514 21.895 -1.6383 
2 86.8 1 6.92794 32.6376 -7.88459 
14 86.8 1 4.09063 -38.0722 9.78427 
32 86.8 1 22.8124 -32.6186 9.46073 
87 15 3 -4.97099 -23.1391 9.92737 
38 86.8 1 16.9233 -28.4854 6.6388 
1 86.8 1 -38.9629 -18.9245 1.74977 
137 67 2 -14.4123 -12.1054 3.32056 
138 15 3 -12.6714 -10.1829 4.03998 
139 29 4 -14.7584 -15.1059 2.93774 
28 86.8 1 39.4804 -19.2682 2.2065 
10 86.8 1 -20.5282 -5.15051 8.10406 
16 86.8 1 -8.30509 -8.72208 0.642784 
29 86.8 1 -3.58286 7.00861 2.90278 
146 67 2 1.97096 10.6337 0.849012 
147 15 3 0.00340112 11.3852 2.50353 
109 29 4 -33.0967 20.4378 1.84321 
74 67 2 -15.6421 -30.6363 15.9168 
76 29 4 -16.2223 -33.5018 16.7647 
101 67 2 -6.83538 -31.2001 15.8478 
103 29 4 -5.8901 -34.1051 15.8616 
75 15 3 -13.7084 -28.7599 15.7533 
86 67 2 -4.64583 -25.4858 11.1963 
88 29 4 -2.63407 -27.2678 12.6297 
102 15 3 -6.71575 -28.844 17.1536 
30 86.8 1 -35.6473 -18.3744 15.3919 
5 86.8 1 -0.406395 -13.7184 11.2723 
11 86.8 1 26.4403 -12.2577 15.055 
92 67 2 -17.4407 6.6301 11.8353 
93 15 3 -14.8967 7.48134 12.0159 
94 29 4 -19.3502 4.37858 12.5718 
155 67 2 -18.5404 6.58239 12.2267 
156 15 3 -18.9257 3.9697 11.6601 
157 29 4 -16.8551 9.03801 11.5491 
128 67 2 -33.0447 18.4057 15.2056 
129 15 3 -35.5183 19.1169 16.0026 
130 29 4 -30.3841 17.27 16.1449 
66 15 3 -20.5429 11.8761 10.8366 
65 67 2 -18.5496 11.534 12.6104 
67 29 4 -15.927 12.6973 13.6403 
21 86.8 1 -20.6089 -34.9263 26.792 
160 29 4 30.8568 -38.6276 29.6191 
8 86.8 1 -18.5301 -21.7342 22.8608 
62 67 2 -1.36124 -27.8537 29.3867 
63 15 3 -3.95466 -27.773 28.6746 
134 67 2 9.66466 -26.8004 26.4824 
136 29 4 9.11084 -28.8042 24.2547 
135 15 3 11.1494 -24.6718 27.1698 
110 67 2 35.0409 -27.8587 24.7804 
111 15 3 33.8158 -27.4973 22.4164 
112 29 4 36.5407 -26.4493 27.0367 
12 86.8 1 8.15141 -11.9544 26.6712 
42 15 3 -37.0812 -2.74094 29.447 
153 15 3 19.9026 -2.40531 22.5537 
25 86.8 1 -16.1942 1.44394 29.2182 
152 67 2 18.9719 0.111083 22.4126 
83 67 2 10.516 9.16239 25.0266 
85 29 4 10.6165 6.19592 24.3526 
154 29 4 19.7689 3.00578 21.8994 
40 86.8 1 -32.91 17.3999 21.9467 
84 15 3 11.5183 11.0769 26.6359 
24 86.8 1 25.8113 36.0214 19.9996 
158 67 2 31.7978 39.0182 27.9265 
159 15 3 32.7061 36.5005 28.0239 
19 86.8 1 -6.90186 -30.3861 34.834 
22 86.8 1 0.523967 -32.2122 34.8157 
64 29 4 0.660385 -29.2809 31.1582 
41 67 2 -37.9923 -2.64148 31.9679 
43 29 4 -39.989 -3.86496 33.9206 
95 67 2 -1.5687 -3.41227 30.4916 
96 15 3 -2.686 -1.13007 31.3717 
97 29 4 -0.481016 -6.12025 31.3587 
33 86.8 1 -25.0284 9.97131 30.7778 
13 86.8 1 19.0119 7.42126 39.8652 
61 29 4 -33.4164 19.8664 38.3455 
77 67 2 2.34841 23.4204 38.6915 
79 29 4 3.76037 23.1614 35.9913 
47 67 2 -13.7463 33.8376 35.8081 
48 15 3 -13.497 34.5678 33.2305 
49 29 4 -14.9678 34.5903 38.4944 
35 86.8 1 29.2585 36.9119 38.9491 
ITEM: TIMESTEP
4000
ITEM: NUMBER OF ATOMS
160
ITEM: BOX BOUNDS pp pp pp
-4.0000000000000000e+01 4.0000000000000000e+01
-4.0000000000000000e+01 4.0000000000000000e+01
-4.0000000000000000e+01 4.0000000000000000e+01
ITEM: ATOMS id mass type x y z 
98 67 2 -39.5523 -30.9123 -38.2636 
100 29 4 38.5063 -32.391 -36.4334 
99 15 3 -38.666 -28.4789 -38.969 
39 86.8 1 -16.3344 -13.6158 -31.9982 
80 67 2 17.618 -15.3678 -34.273 
81 15 3 18.7814 -17.444 -33.0207 
82 29 4 14.9696 -14.2929 -35.3246 
50 67 2 28.9876 -14.8989 -38.3728 
51 15 3 27.7436 -12.5585 -38.8067 
132 15 3 28.829 -13.5127 -31.2741 
52 29 4 30.9982 -16.3406 -36.5876 
15 86.8 1 -11.8017 0.536407 -37.0951 
23 86.8 1 10.0116 6.16238 -38.9555 
13 86.8 1 19.1727 7.64321 -39.4628 
59 67 2 -32.0544 19.8084 -39.2448 
60 15 3 -30.1703 19.1085 -37.4534 
56 67 2 -28.3285 28.3424 -35.7847 
57 15 3 -26.8176 26.1784 -36.2598 
17 86.8 1 -5.22612 23.7909 -32.5456 
58 29 4 -29.2687 31.0057 -36.9415 
26 86.8 1 -11.3394 33.3785 -31.0538 
4 86.8 1 -2.88037 30.6667 -37.6388 
34 86.8 1 9.84791 39.9507 -38.9327 
121 29 4 19.4094 -31.9337 -21.7432 
9 86.8 1 29.6606 -32.5604 -21.6224 
119 67 2 20.8117 -29.4013 -20.7908 
120 15 3 23.2108 -28.2008 -20.5424 
20 86.8 1 28.7977 -13.3083 -28.6227 
131 67 2 27.3849 -13.2433 -29.0168 
133 29 4 25.059 -14.3742 -27.4169 
3 86.8 1 -36.6672 14.2352 -20.2098 
142 29 4 -31.3827 39.807 -20.0309 
37 86.8 1 -26.7169 36.5662 -25.3772 
113 67 2 20.3056 31.9013 -20.3639 
114 15 3 20.8122 32.0899 -23.0043 
27 86.8 1 -5.23814 -33.6419 -18.1551 
53 67 2 8.48164 -35.3636 -10.2158 
55 29 4 5.79319 -34.122 -10.9543 
54 15 3 11.1198 -34.8945 -9.9982 
36 86.8 1 -39.3067 -21.8721 -15.9021 
6 86.8 1 23.6344 -12.3675 -15.2612 
31 86.8 1 -1.88373 -2.26135 -12.4326 
18 86.8 1 -26.9938 9.94941 -10.3292 
70 29 4 -5.12045 0.204278 -19.36 
68 67 2 -4.95654 1.58718 -16.6487 
69 15 3 -4.24514 3.86088 -15.4034 
104 67 2 -29.0322 14.5555 -10.5838 
105 15 3 -27.8495 13.4397 -12.7176 
140 67 2 -33.3875 37.7011 -19.1154 
141 15 3 -34.1368 35.1263 -19.3956 
149 67 2 -16.6725 35.1737 -13.3958 
150 15 3 -14.0307 35.679 -13.5441 
151 29 4 -18.7425 32.9417 -13.2774 
115 29 4 19.2188 30.0886 -18.1676 
145 29 4 0.543965 -27.4377 -3.16274 
143 67 2 0.376004 -24.6046 -2.05365 
144 15 3 1.03922 -22.0427 -2.5358 
122 67 2 38.0206 -22.386 -4.09525 
123 15 3 37.8958 -21.2662 -6.53226 
124 29 4 38.5069 -25.008 -2.61389 
125 67 2 -36.2158 -17.1251 -5.04744 
126 15 3 -35.0599 -15.4334 -6.78985 
127 29 4 -35.7425 -18.8564 -2.58137 
44 67 2 2.46152 -12.7556 -2.96865 
45 15 3 3.26519 -11.0591 -4.89214 
46 29 4 1.37958 -15.5571 -2.42923 
91 29 4 3.53918 -12.5767 -2.66325 
89 67 2 2.35171 -10.3129 -4.32399 
71 67 2 16.1981 -11.1999 -3.64385 
73 29 4 13.9178 -13.2179 -3.85693 
90 15 3 0.0648228 -9.35558 -5.36836 
72 15 3 17.4037 -9.42889 -2.02164 
118 29 4 -29.6766 4.10296 -5.29726 
116 67 2 -29.4954 7.12567 -4.97143 
117 15 3 -28.7335 9.0946 -3.298 
7 86.8 1 22.6162 5.6353 -5.7668 
106 29 4 -31.4701 14.3699 -8.76442 
148 29 4 4.32324 11.9677 -0.222514 
107 67 2 -31.1698 21.9915 -0.647943 
108 15 3 -29.4805 21.1786 -2.58024 
2 86.8 1 6.55368 32.6271 -8.20076 
32 86.8 1 22.681 -32.613 9.70342 
87 15 3 -3.87449 -23.4059 9.79499 
38 86.8 1 16.8733 -28.3566 6.2104 
1 86.8 1 -38.3822 -18.7242 2.30115 
137 67 2 -14.7734 -11.9693 3.10462 
138 15 3 -12.8197 -10.1503 2.79109 
139 29 4 -15.4761 -14.921 2.80595 
28 86.8 1 39.4221 -19.5314 2.32641 
10 86.8 1 -21.1832 -5.43827 8.5868 
16 86.8 1 -8.54241 -8.68533 0.682557 
29 86.8 1 -3.25056 6.96245 2.52946 
147 15 3 -0.7651 10.3873 1.01341 
146 67 2 1.92905 10.4901 0.951655 
109 29 4 -32.9616 21.0571 1.63664 
74 67 2 -15.1565 -30.4789 15.4342 
76 29 4 -16.0174 -33.3386 16.0645 
101 67 2 -6.60268 -31.1751 16.0803 
103 29 4 -5.73228 -33.9851 15.2744 
14 86.8 1 3.87102 -38.727 10.1865 
75 15 3 -13.0529 -28.847 15.0877 
86 67 2 -4.65102 -25.1457 11.6929 
88 29 4 -3.9629 -27.7929 13.0362 
102 15 3 -5.69402 -28.6914 16.5544 
30 86.8 1 -35.4568 -18.6392 15.8524 
5 86.8 1 -0.29551 -13.5637 11.4613 
11 86.8 1 26.4886 -12.1428 15.1511 
92 67 2 -17.34 6.53505 11.3258 
93 15 3 -15.1912 7.90937 12.1705 
94 29 4 -19.3156 4.34412 12.0761 
155 67 2 -18.4129 6.27832 11.1004 
156 15 3 -18.6943 3.64011 11.5171 
157 29 4 -16.438 8.59748 11.1537 
128 67 2 -33.3269 18.3264 14.8328 
129 15 3 -35.3758 19.7559 15.8194 
130 29 4 -30.9516 16.5622 15.5703 
66 15 3 -19.9026 12.7289 10.9412 
65 67 2 -17.8306 11.744 12.3441 
67 29 4 -14.8997 12.1863 13.058 
24 86.8 1 25.7197 36.2471 19.9601 
21 86.8 1 -20.0165 -34.7021 27.0919 
8 86.8 1 -19.1074 -21.7652 22.9308 
62 67 2 -1.54082 -28.2431 29.1414 
63 15 3 -4.19473 -28.393 28.7382 
134 67 2 9.94373 -26.788 26.4436 
136 29 4 8.20045 -28.8061 24.9669 
135 15 3 10.2237 -24.1875 27.0791 
110 67 2 34.4335 -27.6729 24.6029 
111 15 3 33.88 -27.3295 21.9912 
112 29 4 36.4716 -27.0743 26.7904 
12 86.8 1 8.10596 -11.8854 26.6325 
42 15 3 -36.4768 -2.29765 29.9608 
153 15 3 20.2908 -1.90802 22.6346 
25 86.8 1 -15.5434 1.66281 29.5223 
152 67 2 18.8206 0.291398 22.1428 
83 67 2 10.5342 8.46818 25.3057 
85 29 4 10.3017 5.49417 24.6771 
154 29 4 18.8869 3.33161 21.9151 
40 86.8 1 -32.7796 17.902 22.0937 
84 15 3 11.0192 10.2427 27.2627 
158 67 2 31.8295 38.5927 28.3381 
159 15 3 31.406 36.0701 27.4909 
19 86.8 1 -7.01175 -30.3431 35.0082 
22 86.8 1 0.720819 -32.4635 35.3412 
160 29 4 30.7717 -39.1926 30.1431 
64 29 4 0.775328 -29.2201 30.8684 
41 67 2 -37.888 -2.17269 32.2514 
95 67 2 -1.6824 -3.84255 30.924 
96 15 3 -1.73555 -1.37985 32.0024 
97 29 4 -0.229062 -6.52244 30.9356 
43 29 4 39.8454 -3.44573 33.8436 
33 86.8 1 -25.1173 10.0027 30.7433 
61 29 4 -32.6487 20.0575 37.7733 
78 15 3 -0.510897 23.2338 39.8854 
77 67 2 1.84173 23.4338 38.6058 
79 29 4 3.16457 24.1197 35.9384 
47 67 2 -13.4374 33.0887 35.6544 
48 15 3 -12.7038 34.0625 33.2596 
49 29 4 -14.9915 33.7436 38.192 
35 86.8 1 29.3527 37.0979 39.1203 
ITEM: TIMESTEP
6000
ITEM: NUMBER OF ATOMS
160
ITEM: BOX BOUNDS pp pp pp
-4.0000000000000000e+01 4.0000000000000000e+01
-4.0000000000000000e+01 4.0000000000000000e+01
-4.0000000000000000e+01 4.0000000000000000e+01
ITEM: ATOMS id mass type x y z 
98 67 2 -39.5035 -29.8928 -38.0234 
34 86.8 1 9.61798 -39.5618 -38.7683 
100 29 4 38.2439 -31.604 -36.8844 
99 15 3 -38.7192 -27.3679 -38.4926 
39 86.8 1 -16.4246 -13.7484 -31.5314 
80 67 2 17.3851 -15.4321 -34.6381 
81 15 3 18.7456 -17.348 -33.3185 
82 29 4 14.6102 -14.6091 -35.6387 
50 67 2 29.5922 -14.613 -38.7627 
51 15 3 28.0141 -12.4412 -38.864 
132 15 3 28.4334 -12.5994 -30.9029 
52 29 4 31.3313 -16.3255 -36.9333 
15 86.8 1 -12.3055 0.936177 -37.0376 
23 86.8 1 9.66815 5.9582 -38.5932 
13 86.8 1 19.3335 7.86516 -38.7909 
59 67 2 -32.4962 19.5427 -39.399 
60 15 3 -31.4781 19.5186 -36.9116 
56 67 2 -28.2837 28.6788 -36.0817 
57 15 3 -26.5029 26.8461 -36.8989 
17 86.8 1 -5.09192 24.0377 -32.9428 
58 29 4 -29.5168 31.3918 -36.7332 
26 86.8 1 -11.3049 33.544 -31.0825 
4 86.8 1 -3.87047 30.2845 -37.1707 
121 29 4 19.2151 -30.9424 -22.0782 
9 86.8 1 29.9485 -32.2193 -21.7532 
119 67 2 21.4489 -29.4948 -20.5942 
20 86.8 1 28.8481 -13.3632 -29.3179 
131 67 2 27.4487 -13.5985 -28.6084 
133 29 4 24.9886 -13.7913 -26.8246 
3 86.8 1 -36.5914 14.2036 -20.6063 
141 15 3 -35.4827 35.9734 -20.8215 
37 86.8 1 -26.5854 36.3122 -25.4028 
114 15 3 19.2109 31.815 -23.28 
113 67 2 20.3274 31.3242 -20.876 
27 86.8 1 -5.0193 -33.4242 -18.2408 
53 67 2 8.18086 -35.7684 -10.492 
55 29 4 5.44421 -34.4804 -10.1459 
36 86.8 1 -39.6618 -21.7538 -15.5303 
120 15 3 23.9966 -29.7067 -19.7451 
6 86.8 1 23.52 -12.1559 -15.5174 
31 86.8 1 -2.07333 -2.24168 -13.0734 
70 29 4 -5.41543 0.69601 -19.6798 
68 67 2 -4.67345 1.63228 -16.8679 
69 15 3 -4.35958 3.80044 -15.3054 
18 86.8 1 -26.9144 10.2229 -10.5046 
104 67 2 -28.989 14.4983 -10.8162 
105 15 3 -27.5772 13.3871 -12.815 
142 29 4 -31.2986 39.2313 -19.5119 
140 67 2 -33.7521 37.4358 -19.3638 
149 67 2 -16.1992 35.0667 -12.9439 
150 15 3 -13.5198 34.954 -13.2024 
151 29 4 -18.7195 33.3726 -12.6782 
115 29 4 19.7781 30.3549 -18.0364 
54 15 3 10.7068 -35.8108 -9.57805 
145 29 4 0.835558 -26.8478 -3.66427 
143 67 2 0.220031 -24.2247 -2.22938 
144 15 3 0.25869 -21.5454 -2.4858 
122 67 2 37.719 -22.2872 -3.35223 
123 15 3 37.0181 -21.1763 -5.69386 
124 29 4 39.0749 -24.7005 -2.07867 
125 67 2 -35.7688 -16.7275 -5.02526 
126 15 3 -35.4086 -15.3805 -7.32589 
127 29 4 -34.4468 -18.6065 -3.01814 
44 67 2 2.87241 -12.9049 -2.77118 
45 15 3 1.97076 -10.7794 -4.11657 
46 29 4 2.58275 -15.9056 -2.35816 
91 29 4 2.86339 -13.8466 -2.19688 
89 67 2 2.88901 -11.0927 -3.52411 
71 67 2 16.2038 -11.238 -3.18703 
73 29 4 14.3001 -13.3791 -4.21542 
90 15 3 1.71083 -9.47458 -5.32784 
72 15 3 16.3532 -8.87777 -1.91513 
118 29 4 -29.3352 3.47479 -5.10636 
116 67 2 -29.2338 6.52702 -5.1333 
117 15 3 -28.3486 8.69083 -3.79058 
7 86.8 1 22.848 5.70982 -5.89987 
106 29 4 -31.7555 14.6011 -9.52091 
107 67 2 -30.9327 21.9379 -1.13051 
108 15 3 -30.0193 20.6103 -3.28547 
2 86.8 1 6.1794 32.6166 -8.51694 
32 86.8 1 22.5495 -32.6075 9.9461 
87 15 3 -3.20021 -23.8794 10.1078 
38 86.8 1 16.8234 -28.2278 5.78199 
1 86.8 1 -38.1322 -18.6362 2.87357 
137 67 2 -15.0262 -11.8582 2.84792 
138 15 3 -13.3094 -10.1744 1.64189 
139 29 4 -16.2638 -14.6478 2.71506 
28 86.8 1 39.6949 -19.6824 2.42415 
10 86.8 1 -21.8382 -5.72602 9.06955 
16 86.8 1 -8.78097 -8.64902 0.722887 
29 86.8 1 -2.91652 6.9184 2.15502 
147 15 3 -0.321926 9.27472 -0.381098 
148 29 4 4.24357 12.0833 0.665449 
146 67 2 1.69243 10.453 0.964889 
109 29 4 -32.7362 21.7445 1.31672 
74 67 2 -14.6643 -30.3366 14.9535 
76 29 4 -15.8094 -33.1377 15.3574 
101 67 2 -6.00582 -31.1661 16.254 
103 29 4 -5.9737 -33.8159 14.7632 
14 86.8 1 3.6514 -39.3819 10.5888 
75 15 3 -12.4306 -28.9399 14.4276 
86 67 2 -4.44268 -25.0409 12.1946 
88 29 4 -5.57747 -27.6789 13.2353 
102 15 3 -5.50797 -28.5393 16.0044 
30 86.8 1 -35.2662 -18.9039 16.3129 
5 86.8 1 -0.184624 -13.409 11.6504 
11 86.8 1 26.5369 -12.0279 15.2472 
92 67 2 -17.6499 6.86429 10.3578 
93 15 3 -15.7153 8.60145 11.0543 
94 29 4 -19.3645 4.56522 11.379 
155 67 2 -17.6944 5.58652 10.4795 
156 15 3 -19.1671 3.40674 11.0447 
157 29 4 -15.8887 7.71253 11.7024 
128 67 2 -33.6023 18.2439 14.4647 
130 29 4 -31.6538 15.948 14.9953 
66 15 3 -19.0249 13.5434 11.1472 
65 67 2 -17.0769 11.9377 12.0762 
67 29 4 -14.0575 11.6507 12.4031 
129 15 3 -35.0035 20.2287 15.6184 
24 86.8 1 25.6282 36.4728 19.9206 
21 86.8 1 -19.4242 -34.4779 27.3919 
8 86.8 1 -19.6847 -21.7963 23.0009 
62 67 2 -1.70784 -28.6397 28.9085 
63 15 3 -4.37025 -29.0229 28.825 
134 67 2 9.68342 -26.5206 26.1053 
136 29 4 7.93797 -29.0255 26.0512 
135 15 3 10.4545 -24.4213 27.6064 
110 67 2 34.0281 -27.3633 24.3898 
111 15 3 33.563 -27.4302 21.7411 
112 29 4 36.1329 -27.8465 26.5356 
12 86.8 1 8.06051 -11.8163 26.5937 
153 15 3 20.5354 -1.29768 22.672 
25 86.8 1 -14.8926 1.88169 29.8265 
152 67 2 18.7152 0.521655 21.8805 
83 67 2 10.5719 7.73093 25.6719 
85 29 4 9.96569 4.8356 24.9089 
154 29 4 17.9728 3.48368 21.9362 
84 15 3 10.4742 9.51681 27.6797 
40 86.8 1 -32.6492 18.4042 22.2403 
158 67 2 31.6122 37.9444 28.8319 
159 15 3 30.7465 36.3809 26.8131 
19 86.8 1 -7.1215 -30.3 35.1823 
22 86.8 1 0.917618 -32.7144 35.8661 
160 29 4 30.9305 -39.6265 30.5521 
64 29 4 0.827725 -29.1392 30.54 
42 15 3 -35.9515 -1.87483 30.5675 
41 67 2 -37.7853 -1.70652 32.5337 
95 67 2 -1.5873 -4.30577 31.5184 
96 15 3 -1.18915 -1.74048 32.2294 
97 29 4 -0.250465 -6.79128 30.3472 
43 29 4 39.7243 -3.0098 33.7214 
33 86.8 1 -25.2062 10.0342 30.7088 
61 29 4 -31.905 20.2521 37.7076 
78 15 3 -0.847806 23.9024 40.0764 
77 67 2 1.08484 23.5519 38.253 
79 29 4 2.82834 24.9539 36.2026 
47 67 2 -13.1334 32.3558 35.4937 
48 15 3 -11.9325 33.5104 33.3808 
49 29 4 -14.9922 32.8839 37.8583 
35 86.8 1 29.447 37.2839 39.2915 
ITEM: TIMESTEP
8000
ITEM: NUMBER OF ATOMS
160
ITEM: BOX BOUNDS pp pp pp
-4.0000000000000000e+01 4.0000000000000000e+01
-4.0000000000000000e+01 4.0000000000000000e+01
-4.0000000000000000e+01 4.0000000000000000e+01
ITEM: ATOMS id mass type x y z 
34 86.8 1 9.38805 -39.0742 -38.6038 
100 29 4 38.1009 -30.7482 -37.3933 
98 67 2 -39.5111 -28.8906 -37.7578 
99 15 3 -38.7511 -26.3127 -38.0176 
39 86.8 1 -16.5148 -13.881 -31.0646 
80 67 2 17.1365 -15.4995 -35.0045 
81 15 3 18.6881 -17.2146 -33.6413 
82 29 4 14.2988 -14.9373 -35.9368 
51 15 3 28.2876 -12.395 -39.0755 
50 67 2 30.1974 -14.2998 -39.0849 