 argument  1 = bf4.nw
                                         
                                         


              Northwest Computational Chemistry Package (NWChem) 6.8
              ------------------------------------------------------


                    Environmental Molecular Sciences Laboratory
                       Pacific Northwest National Laboratory
                                Richland, WA 99352

                              Copyright (c) 1994-2017
                       Pacific Northwest National Laboratory
                            Battelle Memorial Institute

             NWChem is an open-source computational chemistry package
                        distributed under the terms of the
                      Educational Community License (ECL) 2.0
             A copy of the license is included with this distribution
                              in the LICENSE.TXT file

                                  ACKNOWLEDGMENT
                                  --------------

            This software and its documentation were developed at the
            EMSL at Pacific Northwest National Laboratory, a multiprogram
            national laboratory, operated for the U.S. Department of Energy
            by Battelle under Contract Number DE-AC05-76RL01830. Support
            for this work was provided by the Department of Energy Office
            of Biological and Environmental Research, Office of Basic
            Energy Sciences, and the Office of Advanced Scientific Computing.


           Job information
           ---------------

    hostname        = node007
    program         = /home/kgk6966/src/nwchem/nwchem-6.8.1/bin/LINUX64/nwchem
    date            = Thu Nov  7 10:40:03 2019

    compiled        = Thu_Oct_31_23:50:39_2019
    source          = /home/kgk6966/src/nwchem/nwchem-6.8.1
    nwchem branch   = 6.8.1
    nwchem revision = v6.8-133-ge032219
    ga revision     = 5.6.5
    use scalapack   = F
    input           = bf4.nw
    prefix          = opt_bf4.
    data base       = ./opt_bf4.db
    status          = startup
    nproc           =       16
    time left       =     -1s



           Memory information
           ------------------

    heap     =   13107198 doubles =    100.0 Mbytes
    stack    =   13107195 doubles =    100.0 Mbytes
    global   =   26214400 doubles =    200.0 Mbytes (distinct from heap & stack)
    total    =   52428793 doubles =    400.0 Mbytes
    verify   = yes
    hardfail = no 


           Directory information
           ---------------------

  0 permanent = .
  0 scratch   = .




                                NWChem Input Module
                                -------------------


                                        BF4
                                        ---

 Scaling coordinates for geometry "geometry" by  1.889725989
 (inverse scale =  0.529177249)

 CS  symmetry detected


                             Geometry "geometry" -> ""
                             -------------------------

 Output coordinates in angstroms (scale by  1.889725989 to convert to a.u.)

  No.       Tag          Charge          X              Y              Z
 ---- ---------------- ---------- -------------- -------------- --------------
    1 B                    5.0000     0.00006063    -0.00013690     0.00000000
    2 F                    9.0000    -0.63397236    -1.26708297     0.00000000
    3 F                    9.0000     1.40585901    -0.17536349     0.00000000
    4 F                    9.0000    -0.38596017     0.72126126    -1.15653959
    5 F                    9.0000    -0.38596017     0.72126126     1.15653959

      Atomic Mass 
      ----------- 

      B                 11.009310
      F                 18.998400


 Effective nuclear repulsion energy (a.u.)     178.4019828970

            Nuclear Dipole moment (a.u.) 
            ----------------------------
        X                 Y               Z
 ---------------- ---------------- ----------------
     0.0000000000     0.0000000000     0.0000000000

      Symmetry information
      --------------------

 Group name             Cs        
 Group number              2
 Group order               2
 No. of unique centers     4

      Symmetry unique atoms

     1    2    3    4



                                Z-matrix (user)
                                -------- 

 Units are Angstrom for bonds and degrees for angles

      Type          Name      I     J     K     L     M      Value
      ----------- --------  ----- ----- ----- ----- ----- ----------
    1 Stretch                  2     1                       1.41674
    2 Stretch                  3     1                       1.41668
    3 Bend                     3     1     2               109.48028
    4 Stretch                  4     1                       1.41669
    5 Bend                     4     1     2               109.47715
    6 Torsion                  4     1     2     3         120.01208
    7 Stretch                  5     1                       1.41669
    8 Bend                     5     1     2               109.47715
    9 Torsion                  5     1     2     3        -120.01208


            XYZ format geometry
            -------------------
     5
 geometry
 B                     0.00006063    -0.00013690     0.00000000
 F                    -0.63397236    -1.26708297     0.00000000
 F                     1.40585901    -0.17536349     0.00000000
 F                    -0.38596017     0.72126126    -1.15653959
 F                    -0.38596017     0.72126126     1.15653959

 ==============================================================================
                                internuclear distances
 ------------------------------------------------------------------------------
       center one      |      center two      | atomic units |  angstroms
 ------------------------------------------------------------------------------
    2 F                |   1 B                |     2.67725  |     1.41674
    3 F                |   1 B                |     2.67713  |     1.41668
    4 F                |   1 B                |     2.67716  |     1.41669
    5 F                |   1 B                |     2.67716  |     1.41669
 ------------------------------------------------------------------------------
                         number of included internuclear distances:          4
 ==============================================================================



 ==============================================================================
                                 internuclear angles
 ------------------------------------------------------------------------------
        center 1       |       center 2       |       center 3       |  degrees
 ------------------------------------------------------------------------------
    2 F                |   1 B                |   3 F                |   109.48
    2 F                |   1 B                |   4 F                |   109.48
    2 F                |   1 B                |   5 F                |   109.48
    3 F                |   1 B                |   4 F                |   109.47
    3 F                |   1 B                |   5 F                |   109.47
    4 F                |   1 B                |   5 F                |   109.45
 ------------------------------------------------------------------------------
                            number of included internuclear angles:          6
 ==============================================================================



                      Basis "ao basis" -> "" (cartesian)
                      -----
  B (Boron)
  ---------
            Exponent  Coefficients 
       -------------- ---------------------------------------------------------
  1 S  2.85889000E+03  0.002154
  1 S  4.28140000E+02  0.016582
  1 S  9.75282000E+01  0.082187
  1 S  2.79693000E+01  0.276618
  1 S  8.21577000E+00  0.629316
  1 S  1.11278000E+00  0.173770

  2 S  1.32415000E+01  0.117443
  2 S  3.00166000E+00  0.918002
  2 S  9.12856000E-01 -0.002651

  3 P  1.32415000E+01  0.041810
  3 P  3.00166000E+00  0.236575
  3 P  9.12856000E-01  0.816214

  4 S  3.15454000E-01  1.000000

  5 P  3.15454000E-01  1.000000

  6 S  9.88563000E-02  1.000000

  7 P  9.88563000E-02  1.000000

  8 D  4.01000000E-01  1.000000

  F (Fluorine)
  ------------
            Exponent  Coefficients 
       -------------- ---------------------------------------------------------
  1 S  1.14271000E+04  0.001801
  1 S  1.72235000E+03  0.013742
  1 S  3.95746000E+02  0.068133
  1 S  1.15139000E+02  0.233325
  1 S  3.36026000E+01  0.589086
  1 S  4.91901000E+00  0.299505

  2 S  5.54441000E+01  0.114536
  2 S  1.26323000E+01  0.920512
  2 S  3.71756000E+00 -0.003378

  3 P  5.54441000E+01  0.035461
  3 P  1.26323000E+01  0.237451
  3 P  3.71756000E+00  0.820458

  4 S  1.16545000E+00  1.000000

  5 P  1.16545000E+00  1.000000

  6 S  3.21892000E-01  1.000000

  7 P  3.21892000E-01  1.000000

  8 D  1.75000000E+00  1.000000



 Summary of "ao basis" -> "" (cartesian)
 ------------------------------------------------------------------------------
       Tag                 Description            Shells   Functions and Types
 ---------------- ------------------------------  ------  ---------------------
 B                          6-311g*                  8       19   4s3p1d
 F                          6-311g*                  8       19   4s3p1d




                           NWChem Geometry Optimization
                           ----------------------------




                                        BF4


 maximum gradient threshold         (gmax) =   0.000450
 rms gradient threshold             (grms) =   0.000300
 maximum cartesian step threshold   (xmax) =   0.001800
 rms cartesian step threshold       (xrms) =   0.001200
 fixed trust radius                (trust) =   0.300000
 maximum step size to saddle      (sadstp) =   0.100000
 energy precision                  (eprec) =   5.0D-06
 maximum number of steps          (nptopt) =   20
 initial hessian option           (inhess) =    0
 line search option               (linopt) =    1
 hessian update option            (modupd) =    1
 saddle point option              (modsad) =    0
 initial eigen-mode to follow     (moddir) =    0
 initial variable to follow       (vardir) =    0
 follow first negative mode     (firstneg) =    T
 apply conjugacy                    (opcg) =    F
 source of zmatrix                         =   user    


          -------------------
          Energy Minimization
          -------------------


 Names of Z-matrix variables 
    1              2              3              4              5         
    6              7              8              9         

 Variables with the same non-blank name are constrained to be equal


 Using diagonal initial Hessian 
 Scaling for Hessian diagonals: bonds = 1.00  angles = 0.25  torsions = 0.10

          --------
          Step   0
          --------


                         Geometry "geometry" -> "geometry"
                         ---------------------------------

 Output coordinates in angstroms (scale by  1.889725989 to convert to a.u.)

  No.       Tag          Charge          X              Y              Z
 ---- ---------------- ---------- -------------- -------------- --------------
    1 B                    5.0000     0.00006063    -0.00013690     0.00000000
    2 F                    9.0000    -0.63397236    -1.26708297     0.00000000
    3 F                    9.0000     1.40585901    -0.17536349     0.00000000
    4 F                    9.0000    -0.38596017     0.72126126    -1.15653959
    5 F                    9.0000    -0.38596017     0.72126126     1.15653959

      Atomic Mass 
      ----------- 

      B                 11.009310
      F                 18.998400


 Effective nuclear repulsion energy (a.u.)     178.4019828970

            Nuclear Dipole moment (a.u.) 
            ----------------------------
        X                 Y               Z
 ---------------- ---------------- ----------------
     0.0000000000     0.0000000000     0.0000000000

      Symmetry information
      --------------------

 Group name             Cs        
 Group number              2
 Group order               2
 No. of unique centers     4

      Symmetry unique atoms

     1    2    3    4


                                 NWChem DFT Module
                                 -----------------


                                        BF4




 Summary of "ao basis" -> "ao basis" (cartesian)
 ------------------------------------------------------------------------------
       Tag                 Description            Shells   Functions and Types
 ---------------- ------------------------------  ------  ---------------------
 B                          6-311g*                  8       19   4s3p1d
 F                          6-311g*                  8       19   4s3p1d


      Symmetry analysis of basis
      --------------------------

        a'         61
        a"         34

  Caching 1-el integrals 

            General Information
            -------------------
          SCF calculation type: DFT
          Wavefunction type:  closed shell.
          No. of atoms     :     5
          No. of electrons :    42
           Alpha electrons :    21
            Beta electrons :    21
          Charge           :    -1
          Spin multiplicity:     1
          Use of symmetry is: on ; symmetry adaption is: on 
          Maximum number of iterations:  30
          AO basis - number of functions:    95
                     number of shells:    40
          Convergence on energy requested:  1.00D-06
          Convergence on density requested:  1.00D-05
          Convergence on gradient requested:  5.00D-04

              XC Information
              --------------
                         B3LYP Method XC Potential
                     Hartree-Fock (Exact) Exchange  0.200          
                        Slater Exchange Functional  0.800 local    
                    Becke 1988 Exchange Functional  0.720 non-local
              Lee-Yang-Parr Correlation Functional  0.810          
                  VWN I RPA Correlation Functional  0.190 local    

             Grid Information
             ----------------
          Grid used for XC integration:  medium    
          Radial quadrature: Mura-Knowles        
          Angular quadrature: Lebedev. 
          Tag              B.-S. Rad. Rad. Pts. Rad. Cut. Ang. Pts.
          ---              ---------- --------- --------- ---------
          B                   0.85       49           5.0       434
          F                   0.50       49           6.0       434
          Grid pruning is: on 
          Number of quadrature shells:   196
          Spatial weights used:  Erf1

          Convergence Information
          -----------------------
          Convergence aids based upon iterative change in 
          total energy or number of iterations. 
          Levelshifting, if invoked, occurs when the 
          HOMO/LUMO gap drops below (HL_TOL):  1.00D-02
          DIIS, if invoked, will attempt to extrapolate 
          using up to (NFOCK): 10 stored Fock matrices.

                    Damping( 0%)  Levelshifting(0.5)       DIIS
                  --------------- ------------------- ---------------
          dE  on:    start            ASAP                start   
          dE off:    2 iters         30 iters            30 iters 


      Screening Tolerance Information
      -------------------------------
          Density screening/tol_rho:  1.00D-10
          AO Gaussian exp screening on grid/accAOfunc:  14
          CD Gaussian exp screening on grid/accCDfunc:  20
          XC Gaussian exp screening on grid/accXCfunc:  20
          Schwarz screening/accCoul:  1.00D-08


      Superposition of Atomic Density Guess
      -------------------------------------

 Sum of atomic energies:        -422.15432787

 Renormalizing density from      41.00 to     42

      Non-variational initial energy
      ------------------------------

 Total energy =    -428.870951
 1-e energy   =    -967.596099
 2-e energy   =     360.323165
 HOMO         =      -0.233171
 LUMO         =       0.479351


      Symmetry analysis of molecular orbitals - initial
      -------------------------------------------------

  Numbering of irreducible representations: 

     1 a'          2 a"      

  Orbital symmetries:

     1 a'          2 a'          3 a'          4 a"          5 a'      
     6 a'          7 a'          8 a'          9 a"         10 a'      
    11 a'         12 a'         13 a"         14 a'         15 a"      
    16 a'         17 a'         18 a"         19 a'         20 a"      
    21 a"         22 a'         23 a"         24 a'         25 a'      
    26 a'         27 a"         28 a'         29 a'         30 a'      
    31 a'      

   Time after variat. SCF:      0.8
   Time prior to 1st pass:      0.8

 Integral file          = ./opt_bf4.aoints.00
 Record size in doubles =    65536    No. of integs per rec  =    43688
 Max. records in memory =       15    Max. records in file   = 32704775
 No. of bits per label  =        8    No. of bits per value  =       64


 #quartets = 1.484D+05 #integrals = 3.518D+06 #direct =  0.0% #cached =100.0%


File balance: exchanges=     0  moved=     0  time=   0.0


 Grid_pts file          = ./opt_bf4.gridpts.00
 Record size in doubles =  12289        No. of grid_pts per rec  =   3070
 Max. records in memory =      3        Max. recs in file   = 174411276


           Memory utilization after 1st SCF pass: 
           Heap Space remaining (MW):       12.08            12084078
          Stack Space remaining (MW):       13.11            13106532

   convergence    iter        energy       DeltaE   RMS-Dens  Diis-err    time
 ---------------- ----- ----------------- --------- --------- ---------  ------
 d= 0,ls=0.0,diis     1   -424.5286310436 -6.03D+02  9.34D-03  2.47D+00     4.1
 d= 0,ls=0.0,diis     2   -424.6202679069 -9.16D-02  4.91D-03  3.67D-01     4.2
 d= 0,ls=0.0,diis     3   -424.6490879178 -2.88D-02  1.20D-03  3.71D-02     4.3
 d= 0,ls=0.0,diis     4   -424.6519181370 -2.83D-03  2.61D-04  6.99D-03     4.3
 d= 0,ls=0.0,diis     5   -424.6523416107 -4.23D-04  2.42D-05  5.82D-05     4.3
  Resetting Diis
 d= 0,ls=0.0,diis     6   -424.6523454566 -3.85D-06  1.19D-06  2.41D-08     4.4
 d= 0,ls=0.0,diis     7   -424.6523454592 -2.52D-09  2.73D-07  7.22D-10     4.4


         Total DFT energy =     -424.652345459155
      One electron energy =     -958.210770895468
           Coulomb energy =      401.571553123394
    Exchange-Corr. energy =      -46.415110584093
 Nuclear repulsion energy =      178.401982897012

 Numeric. integr. density =       41.999995312476

     Total iterative time =      3.6s



                  Occupations of the irreducible representations
                  ----------------------------------------------

                     irrep           alpha         beta
                     --------     --------     --------
                     a'               14.0         14.0
                     a"                7.0          7.0


                       DFT Final Molecular Orbital Analysis
                       ------------------------------------

 Vector    1  Occ=2.000000D+00  E=-2.440771D+01  Symmetry=a'
              MO Center=  1.3D+00, -2.3D-01,  6.8D-20, r^2= 2.8D-01
   Bfn.  Coefficient  Atom+Function         Bfn.  Coefficient  Atom+Function  
  ----- ------------  ---------------      ----- ------------  ---------------
    39      0.533452  3 F  s                 40      0.456159  3 F  s          
    20     -0.124369  2 F  s                 21     -0.106351  2 F  s          

 Vector    2  Occ=2.000000D+00  E=-2.440770D+01  Symmetry=a'
              MO Center= -5.3D-01, -1.2D+00,  2.7D-12, r^2= 2.9D-01
   Bfn.  Coefficient  Atom+Function         Bfn.  Coefficient  Atom+Function  
  ----- ------------  ---------------      ----- ------------  ---------------
    20      0.532995  2 F  s                 21      0.455767  2 F  s          
    39      0.123121  3 F  s                 40      0.105279  3 F  s          

 Vector    3  Occ=2.000000D+00  E=-2.440765D+01  Symmetry=a"
              MO Center= -3.9D-01,  7.2D-01, -2.7D-12, r^2= 1.3D+00
   Bfn.  Coefficient  Atom+Function         Bfn.  Coefficient  Atom+Function  
  ----- ------------  ---------------      ----- ------------  ---------------
    58      0.387536  4 F  s                 77     -0.387536  5 F  s          
    59      0.331386  4 F  s                 78     -0.331386  5 F  s          

 Vector    4  Occ=2.000000D+00  E=-2.440765D+01  Symmetry=a'
              MO Center= -3.8D-01,  7.1D-01, -4.1D-16, r^2= 1.4D+00
   Bfn.  Coefficient  Atom+Function         Bfn.  Coefficient  Atom+Function  
  ----- ------------  ---------------      ----- ------------  ---------------
    58      0.386596  4 F  s                 77      0.386596  5 F  s          
    59      0.330579  4 F  s                 78      0.330579  5 F  s          
    20      0.028600  2 F  s                 39      0.025282  3 F  s          

 Vector    5  Occ=2.000000D+00  E=-6.635631D+00  Symmetry=a'
              MO Center=  6.1D-05, -1.4D-04,  2.7D-18, r^2= 4.1D-02
   Bfn.  Coefficient  Atom+Function         Bfn.  Coefficient  Atom+Function  
  ----- ------------  ---------------      ----- ------------  ---------------
     1      0.579245  1 B  s                  2      0.448737  1 B  s          

 Vector    6  Occ=2.000000D+00  E=-9.755407D-01  Symmetry=a'
              MO Center=  3.1D-04, -4.6D-05,  4.4D-15, r^2= 2.0D+00
   Bfn.  Coefficient  Atom+Function         Bfn.  Coefficient  Atom+Function  
  ----- ------------  ---------------      ----- ------------  ---------------
    25      0.284245  2 F  s                 44      0.284387  3 F  s          
    63      0.284233  4 F  s                 82      0.284233  5 F  s          
    29      0.232698  2 F  s                 48      0.232798  3 F  s          
    67      0.232689  4 F  s                 86      0.232689  5 F  s          
     6      0.163855  1 B  s                 21     -0.096830  2 F  s          

 Vector    7  Occ=2.000000D+00  E=-9.220764D-01  Symmetry=a'
              MO Center=  6.7D-01, -4.3D-01, -8.1D-12, r^2= 1.5D+00
   Bfn.  Coefficient  Atom+Function         Bfn.  Coefficient  Atom+Function  
  ----- ------------  ---------------      ----- ------------  ---------------
    44      0.501420  3 F  s                 48      0.368324  3 F  s          
    25     -0.337515  2 F  s                 29     -0.247940  2 F  s          
    40     -0.168339  3 F  s                 21      0.113313  2 F  s          
    39     -0.103020  3 F  s                 63     -0.082063  4 F  s          
    82     -0.082063  5 F  s                 20      0.069345  2 F  s          

 Vector    8  Occ=2.000000D+00  E=-9.220621D-01  Symmetry=a'
              MO Center= -3.2D-01, -2.3D-01, -1.3D-17, r^2= 2.0D+00
   Bfn.  Coefficient  Atom+Function         Bfn.  Coefficient  Atom+Function  
  ----- ------------  ---------------      ----- ------------  ---------------
    25      0.412567  2 F  s                 29      0.303065  2 F  s          
    63     -0.296622  4 F  s                 82     -0.296622  5 F  s          
    67     -0.217887  4 F  s                 86     -0.217887  5 F  s          
    44      0.180612  3 F  s                 21     -0.138509  2 F  s          
    48      0.132669  3 F  s                 59      0.099584  4 F  s          

 Vector    9  Occ=2.000000D+00  E=-9.220217D-01  Symmetry=a"
              MO Center= -3.5D-01,  6.6D-01,  8.1D-12, r^2= 1.6D+00
   Bfn.  Coefficient  Atom+Function         Bfn.  Coefficient  Atom+Function  
  ----- ------------  ---------------      ----- ------------  ---------------
    63      0.435210  4 F  s                 82     -0.435210  5 F  s          
    67      0.319699  4 F  s                 86     -0.319699  5 F  s          
    59     -0.146112  4 F  s                 78      0.146112  5 F  s          
    58     -0.089417  4 F  s                 77      0.089417  5 F  s          
     9     -0.070715  1 B  pz                 5     -0.055423  1 B  pz         

 Vector   10  Occ=2.000000D+00  E=-3.369020D-01  Symmetry=a'
              MO Center=  2.0D-04, -5.2D-05, -1.7D-17, r^2= 2.4D+00
   Bfn.  Coefficient  Atom+Function         Bfn.  Coefficient  Atom+Function  
  ----- ------------  ---------------      ----- ------------  ---------------
     6      0.359662  1 B  s                 45     -0.179588  3 F  px         
    27      0.161792  2 F  py                49     -0.160414  3 F  px         
    66      0.147689  4 F  pz                85     -0.147689  5 F  pz         
    31      0.144528  2 F  py                70      0.131922  4 F  pz         
    89     -0.131922  5 F  pz                 2     -0.129779  1 B  s          

 Vector   11  Occ=2.000000D+00  E=-2.779114D-01  Symmetry=a'
              MO Center=  2.8D-01, -2.8D-01,  1.4D-18, r^2= 2.2D+00
   Bfn.  Coefficient  Atom+Function         Bfn.  Coefficient  Atom+Function  
  ----- ------------  ---------------      ----- ------------  ---------------
    45      0.238726  3 F  px                27      0.221823  2 F  py         
    49      0.198850  3 F  px                31      0.189490  2 F  py         
     7     -0.174021  1 B  px                41      0.169287  3 F  px         
    23      0.157133  2 F  py                48      0.153951  3 F  s          
     3     -0.132899  1 B  px                29     -0.124745  2 F  s          

 Vector   12  Occ=2.000000D+00  E=-2.779081D-01  Symmetry=a'
              MO Center= -9.6D-02, -6.1D-02,  2.2D-12, r^2= 2.3D+00
   Bfn.  Coefficient  Atom+Function         Bfn.  Coefficient  Atom+Function  
  ----- ------------  ---------------      ----- ------------  ---------------
    66      0.192990  4 F  pz                85     -0.192990  5 F  pz         
     8      0.174028  1 B  py                26     -0.173726  2 F  px         
    70      0.167417  4 F  pz                89     -0.167417  5 F  pz         
    30     -0.153678  2 F  px                45      0.139566  3 F  px         
    62      0.136617  4 F  pz                81     -0.136617  5 F  pz         

 Vector   13  Occ=2.000000D+00  E=-2.778811D-01  Symmetry=a"
              MO Center= -1.8D-01,  3.4D-01, -2.2D-12, r^2= 2.2D+00
   Bfn.  Coefficient  Atom+Function         Bfn.  Coefficient  Atom+Function  
  ----- ------------  ---------------      ----- ------------  ---------------
     9      0.184859  1 B  pz                65      0.172033  4 F  py         
    84     -0.172033  5 F  py                69      0.149239  4 F  py         
    88     -0.149239  5 F  py                 5      0.141170  1 B  pz         
    67      0.140877  4 F  s                 86     -0.140877  5 F  s          
    66     -0.140117  4 F  pz                85     -0.140117  5 F  pz         

 Vector   14  Occ=2.000000D+00  E=-1.921135D-01  Symmetry=a'
              MO Center=  2.6D-04, -2.9D-04,  1.9D-14, r^2= 2.4D+00
   Bfn.  Coefficient  Atom+Function         Bfn.  Coefficient  Atom+Function  
  ----- ------------  ---------------      ----- ------------  ---------------
    50      0.217619  3 F  py                46      0.213308  3 F  py         
    30     -0.196053  2 F  px                26     -0.192156  2 F  px         
    69     -0.157747  4 F  py                88     -0.157747  5 F  py         
    42      0.154099  3 F  py                65     -0.154591  4 F  py         
    84     -0.154591  5 F  py                22     -0.138820  2 F  px         

 Vector   15  Occ=2.000000D+00  E=-1.920974D-01  Symmetry=a"
              MO Center=  4.9D-04, -5.3D-04,  1.2D-14, r^2= 2.4D+00
   Bfn.  Coefficient  Atom+Function         Bfn.  Coefficient  Atom+Function  
  ----- ------------  ---------------      ----- ------------  ---------------
    32      0.219315  2 F  pz                51     -0.219377  3 F  pz         
    28      0.214950  2 F  pz                47     -0.215018  3 F  pz         
    68      0.193209  4 F  px                87     -0.193209  5 F  px         
    64      0.189363  4 F  px                83     -0.189363  5 F  px         
    24      0.155288  2 F  pz                43     -0.155336  3 F  pz         

 Vector   16  Occ=2.000000D+00  E=-1.730015D-01  Symmetry=a'
              MO Center= -1.6D-03,  1.2D-02, -1.5D-14, r^2= 2.5D+00
   Bfn.  Coefficient  Atom+Function         Bfn.  Coefficient  Atom+Function  
  ----- ------------  ---------------      ----- ------------  ---------------
    45      0.179951  3 F  px                26      0.176753  2 F  px         
    64      0.171453  4 F  px                83      0.171453  5 F  px         
    49      0.159933  3 F  px                30      0.158493  2 F  px         
    68      0.155835  4 F  px                87      0.155835  5 F  px         
    27      0.146093  2 F  py                65      0.137293  4 F  py         

 Vector   17  Occ=2.000000D+00  E=-1.729930D-01  Symmetry=a'
              MO Center= -4.3D-03, -1.3D-03, -3.8D-13, r^2= 2.5D+00
   Bfn.  Coefficient  Atom+Function         Bfn.  Coefficient  Atom+Function  
  ----- ------------  ---------------      ----- ------------  ---------------
    27      0.176256  2 F  py                65      0.175291  4 F  py         
    84      0.175291  5 F  py                46      0.172780  3 F  py         
    31      0.158169  2 F  py                69      0.157752  4 F  py         
    88      0.157752  5 F  py                50      0.156449  3 F  py         
    45     -0.144995  3 F  px                64     -0.138516  4 F  px         

 Vector   18  Occ=2.000000D+00  E=-1.729728D-01  Symmetry=a"
              MO Center=  5.8D-03, -1.1D-02,  3.7D-13, r^2= 2.5D+00
   Bfn.  Coefficient  Atom+Function         Bfn.  Coefficient  Atom+Function  
  ----- ------------  ---------------      ----- ------------  ---------------
    66      0.227273  4 F  pz                85      0.227273  5 F  pz         
    28      0.219741  2 F  pz                47      0.219665  3 F  pz         
    70      0.203039  4 F  pz                89      0.203039  5 F  pz         
    32      0.199575  2 F  pz                51      0.199494  3 F  pz         
    62      0.161585  4 F  pz                81      0.161585  5 F  pz         

 Vector   19  Occ=2.000000D+00  E=-1.396362D-01  Symmetry=a'
              MO Center=  1.9D-01, -3.6D-01,  5.0D-11, r^2= 2.3D+00
   Bfn.  Coefficient  Atom+Function         Bfn.  Coefficient  Atom+Function  
  ----- ------------  ---------------      ----- ------------  ---------------
    50      0.284474  3 F  py                46      0.281480  3 F  py         
    30      0.256343  2 F  px                26      0.253636  2 F  px         
    42      0.200907  3 F  py                22      0.181035  2 F  px         
    68     -0.146040  4 F  px                87     -0.146040  5 F  px         
    64     -0.144514  4 F  px                83     -0.144514  5 F  px         

 Vector   20  Occ=2.000000D+00  E=-1.396249D-01  Symmetry=a"
              MO Center= -2.3D-02, -1.1D-02, -4.9D-11, r^2= 2.5D+00
   Bfn.  Coefficient  Atom+Function         Bfn.  Coefficient  Atom+Function  
  ----- ------------  ---------------      ----- ------------  ---------------
    32      0.238998  2 F  pz                28      0.236483  2 F  pz         
    51     -0.228806  3 F  pz                47     -0.226405  3 F  pz         
    68     -0.203007  4 F  px                87      0.203007  5 F  px         
    64     -0.200869  4 F  px                83      0.200869  5 F  px         
    24      0.168791  2 F  pz                43     -0.161596  3 F  pz         

 Vector   21  Occ=2.000000D+00  E=-1.396016D-01  Symmetry=a"
              MO Center= -1.7D-01,  3.7D-01, -2.7D-13, r^2= 2.3D+00
   Bfn.  Coefficient  Atom+Function         Bfn.  Coefficient  Atom+Function  
  ----- ------------  ---------------      ----- ------------  ---------------
    69      0.202872  4 F  py                88     -0.202872  5 F  py         
    65      0.200741  4 F  py                84     -0.200741  5 F  py         
    51     -0.172486  3 F  pz                47     -0.170645  3 F  pz         
    70      0.165714  4 F  pz                89      0.165714  5 F  pz         
    66      0.163990  4 F  pz                85      0.163990  5 F  pz         

 Vector   22  Occ=0.000000D+00  E= 3.620255D-01  Symmetry=a'
              MO Center=  6.5D-04, -1.9D-03,  4.5D-15, r^2= 3.9D+00
   Bfn.  Coefficient  Atom+Function         Bfn.  Coefficient  Atom+Function  
  ----- ------------  ---------------      ----- ------------  ---------------
    10      2.321486  1 B  s                 29     -0.566543  2 F  s          
    48     -0.566397  3 F  s                 67     -0.565767  4 F  s          
    86     -0.565767  5 F  s                  6     -0.214471  1 B  s          
    49      0.201146  3 F  px                31     -0.181229  2 F  py         
    70     -0.165202  4 F  pz                89      0.165202  5 F  pz         

 Vector   23  Occ=0.000000D+00  E= 4.121789D-01  Symmetry=a"
              MO Center=  1.1D-01, -2.0D-01, -3.9D-15, r^2= 4.5D+00
   Bfn.  Coefficient  Atom+Function         Bfn.  Coefficient  Atom+Function  
  ----- ------------  ---------------      ----- ------------  ---------------
    13      1.597778  1 B  pz                67      0.658869  4 F  s          
    86     -0.658869  5 F  s                 32     -0.266030  2 F  pz         
    51     -0.266044  3 F  pz                69     -0.180216  4 F  py         
    88      0.180216  5 F  py                28     -0.120306  2 F  pz         
    47     -0.120300  3 F  pz                63      0.110972  4 F  s          

 Vector   24  Occ=0.000000D+00  E= 4.122200D-01  Symmetry=a'
              MO Center= -2.2D-01, -4.1D-02,  8.4D-16, r^2= 4.5D+00
   Bfn.  Coefficient  Atom+Function         Bfn.  Coefficient  Atom+Function  
  ----- ------------  ---------------      ----- ------------  ---------------
    11      1.386244  1 B  px                12     -0.795330  1 B  py         
    48     -0.744047  3 F  s                 67      0.395834  4 F  s          
    86      0.395834  5 F  s                 30     -0.241733  2 F  px         
    68     -0.172898  4 F  px                70      0.173458  4 F  pz         
    87     -0.172898  5 F  px                89     -0.173458  5 F  pz         

 Vector   25  Occ=0.000000D+00  E= 4.122311D-01  Symmetry=a'
              MO Center=  1.1D-01,  2.5D-01, -6.5D-17, r^2= 4.4D+00
   Bfn.  Coefficient  Atom+Function         Bfn.  Coefficient  Atom+Function  
  ----- ------------  ---------------      ----- ------------  ---------------
    12      1.386298  1 B  py                29      0.805513  2 F  s          
    11      0.795301  1 B  px                48     -0.312423  3 F  s          
    50     -0.251527  3 F  py                67     -0.247533  4 F  s          
    86     -0.247533  5 F  s                 68     -0.168599  4 F  px         
    87     -0.168599  5 F  px                69     -0.163155  4 F  py         

 Vector   26  Occ=0.000000D+00  E= 5.989391D-01  Symmetry=a"
              MO Center=  2.9D-02, -5.5D-02,  1.9D-17, r^2= 1.7D+00
   Bfn.  Coefficient  Atom+Function         Bfn.  Coefficient  Atom+Function  
  ----- ------------  ---------------      ----- ------------  ---------------
     9      1.091732  1 B  pz                13     -0.740718  1 B  pz         
     5      0.370331  1 B  pz                18     -0.283785  1 B  dyz        
    70      0.210330  4 F  pz                89      0.210330  5 F  pz         
    69     -0.164226  4 F  py                88      0.164226  5 F  py         
    16      0.151856  1 B  dxz               63      0.112139  4 F  s          

 Vector   27  Occ=0.000000D+00  E= 5.990098D-01  Symmetry=a'
              MO Center=  1.2D-03,  6.5D-02,  1.5D-16, r^2= 1.7D+00
   Bfn.  Coefficient  Atom+Function         Bfn.  Coefficient  Atom+Function  
  ----- ------------  ---------------      ----- ------------  ---------------
     7      0.781561  1 B  px                 8      0.762369  1 B  py         
    11     -0.529936  1 B  px                12     -0.516920  1 B  py         
    31      0.297126  2 F  py                 3      0.265148  1 B  px         
     4      0.258643  1 B  py                15      0.208727  1 B  dxy        
    49      0.206425  3 F  px                27      0.177065  2 F  py         

 Vector   28  Occ=0.000000D+00  E= 5.990308D-01  Symmetry=a'
              MO Center= -3.0D-02, -1.3D-02, -9.2D-17, r^2= 1.7D+00
   Bfn.  Coefficient  Atom+Function         Bfn.  Coefficient  Atom+Function  
  ----- ------------  ---------------      ----- ------------  ---------------
     8     -0.781570  1 B  py                 7      0.762388  1 B  px         
    12      0.529964  1 B  py                11     -0.516963  1 B  px         
    49      0.269845  3 F  px                 4     -0.265145  1 B  py         
     3      0.258631  1 B  px                70      0.178648  4 F  pz         
    89     -0.178648  5 F  pz                45      0.159190  3 F  px         

 Vector   29  Occ=0.000000D+00  E= 6.365291D-01  Symmetry=a'
              MO Center= -3.0D-04,  2.3D-03, -4.4D-16, r^2= 1.8D+00
   Bfn.  Coefficient  Atom+Function         Bfn.  Coefficient  Atom+Function  
  ----- ------------  ---------------      ----- ------------  ---------------
     6      1.806290  1 B  s                 10     -1.075499  1 B  s          
    49      0.284730  3 F  px                31     -0.256245  2 F  py         
    14      0.245831  1 B  dxx               17      0.245834  1 B  dyy        
    19      0.245394  1 B  dzz               70     -0.234825  4 F  pz         
    89      0.234825  5 F  pz                 2     -0.223223  1 B  s          

 Vector   30  Occ=0.000000D+00  E= 1.076124D+00  Symmetry=a'
              MO Center=  9.9D-01, -9.3D-02,  1.4D-16, r^2= 3.5D+00
   Bfn.  Coefficient  Atom+Function         Bfn.  Coefficient  Atom+Function  
  ----- ------------  ---------------      ----- ------------  ---------------
    49      1.539725  3 F  px                 7      1.258762  1 B  px         
    48     -0.836256  3 F  s                 14      0.740455  1 B  dxx        
    31      0.539863  2 F  py                70      0.519263  4 F  pz         
    89     -0.519263  5 F  pz                45     -0.405548  3 F  px         
    19     -0.393737  1 B  dzz               17     -0.346594  1 B  dyy        

 Vector   31  Occ=0.000000D+00  E= 1.076133D+00  Symmetry=a'
              MO Center= -5.8D-01, -6.7D-01, -1.4D-16, r^2= 3.7D+00
   Bfn.  Coefficient  Atom+Function         Bfn.  Coefficient  Atom+Function  
  ----- ------------  ---------------      ----- ------------  ---------------
    31      1.283667  2 F  py                 8      1.258739  1 B  py         
    15     -0.871377  1 B  dxy               29      0.796761  2 F  s          
    30      0.736764  2 F  px                70     -0.688216  4 F  pz         
    89      0.688216  5 F  pz                19      0.521808  1 B  dzz        
    17     -0.443645  1 B  dyy               67     -0.385675  4 F  s          

 Vector   32  Occ=0.000000D+00  E= 1.076158D+00  Symmetry=a"
              MO Center= -4.1D-01,  7.6D-01, -1.8D-16, r^2= 3.7D+00
   Bfn.  Coefficient  Atom+Function         Bfn.  Coefficient  Atom+Function  
  ----- ------------  ---------------      ----- ------------  ---------------
     9      1.273746  1 B  pz                18      1.153170  1 B  dyz        
    70      0.941286  4 F  pz                89      0.941286  5 F  pz         
    69     -0.760426  4 F  py                88      0.760426  5 F  py         
    67      0.682933  4 F  s                 86     -0.682933  5 F  s          
    16     -0.616983  1 B  dxz               68      0.406923  4 F  px         

 Vector   33  Occ=0.000000D+00  E= 1.106217D+00  Symmetry=a'
              MO Center= -1.6D-04,  2.7D-04, -2.1D-15, r^2= 2.7D+00
   Bfn.  Coefficient  Atom+Function         Bfn.  Coefficient  Atom+Function  
  ----- ------------  ---------------      ----- ------------  ---------------
    50      0.443751  3 F  py                30     -0.399845  2 F  px         
    46     -0.370842  3 F  py                26      0.334186  2 F  px         
    69     -0.322181  4 F  py                88     -0.322181  5 F  py         
    65      0.269172  4 F  py                84      0.269172  5 F  py         
    70     -0.257820  4 F  pz                89      0.257820  5 F  pz         

 Vector   34  Occ=0.000000D+00  E= 1.106233D+00  Symmetry=a"
              MO Center=  1.6D-04, -1.9D-04,  1.0D-15, r^2= 2.7D+00
   Bfn.  Coefficient  Atom+Function         Bfn.  Coefficient  Atom+Function  
  ----- ------------  ---------------      ----- ------------  ---------------
    32      0.447162  2 F  pz                51     -0.447202  3 F  pz         
    68      0.394128  4 F  px                87     -0.394128  5 F  px         
    28     -0.373780  2 F  pz                47      0.373815  3 F  pz         
    64     -0.329471  4 F  px                83      0.329471  5 F  px         
    16     -0.314362  1 B  dxz               69      0.210904  4 F  py         

 Vector   35  Occ=0.000000D+00  E= 1.135365D+00  Symmetry=a'
              MO Center= -3.5D-04,  1.1D-04, -8.9D-16, r^2= 4.6D+00
   Bfn.  Coefficient  Atom+Function         Bfn.  Coefficient  Atom+Function  
  ----- ------------  ---------------      ----- ------------  ---------------
     6      1.399356  1 B  s                 49      0.928634  3 F  px         
    31     -0.837027  2 F  py                70     -0.764538  4 F  pz         
    89      0.764538  5 F  pz                69      0.476374  4 F  py         
    88      0.476374  5 F  py                30     -0.419020  2 F  px         
    29     -0.392812  2 F  s                 48     -0.392847  3 F  s          

 Vector   36  Occ=0.000000D+00  E= 1.275076D+00  Symmetry=a'
              MO Center=  2.4D-05,  9.8D-05, -4.7D-17, r^2= 2.2D+00
   Bfn.  Coefficient  Atom+Function         Bfn.  Coefficient  Atom+Function  
  ----- ------------  ---------------      ----- ------------  ---------------
    15      1.564617  1 B  dxy               17     -0.835183  1 B  dyy        
    19      0.627555  1 B  dzz               50     -0.509267  3 F  py         
    30      0.458657  2 F  px                69      0.369659  4 F  py         
    88      0.369659  5 F  py                70      0.296402  4 F  pz         
    89     -0.296402  5 F  pz                31     -0.229802  2 F  py         

 Vector   37  Occ=0.000000D+00  E= 1.275084D+00  Symmetry=a"
              MO Center=  1.2D-04, -1.5D-04,  2.0D-16, r^2= 2.2D+00
   Bfn.  Coefficient  Atom+Function         Bfn.  Coefficient  Atom+Function  
  ----- ------------  ---------------      ----- ------------  ---------------
    16      1.914863  1 B  dxz               18      1.024554  1 B  dyz        
    32      0.513402  2 F  pz                51     -0.513542  3 F  pz         
    68      0.452570  4 F  px                87     -0.452570  5 F  px         
    69      0.242210  4 F  py                88     -0.242210  5 F  py         
    28     -0.109701  2 F  pz                47      0.109718  3 F  pz         

 Vector   38  Occ=0.000000D+00  E= 1.357507D+00  Symmetry=a'
              MO Center=  1.9D-01, -3.6D-01, -2.0D-11, r^2= 3.3D+00
   Bfn.  Coefficient  Atom+Function         Bfn.  Coefficient  Atom+Function  
  ----- ------------  ---------------      ----- ------------  ---------------
    50      0.793413  3 F  py                30      0.715435  2 F  px         
    46     -0.481592  3 F  py                26     -0.434110  2 F  px         
    68     -0.406568  4 F  px                87     -0.406568  5 F  px         
    31     -0.357716  2 F  py                64      0.246830  4 F  px         
    83      0.246830  5 F  px                27      0.217238  2 F  py         

 Vector   39  Occ=0.000000D+00  E= 1.357519D+00  Symmetry=a"
              MO Center= -1.0D-01, -4.5D-02,  2.0D-11, r^2= 3.4D+00
   Bfn.  Coefficient  Atom+Function         Bfn.  Coefficient  Atom+Function  
  ----- ------------  ---------------      ----- ------------  ---------------
    32      0.708877  2 F  pz                51     -0.584777  3 F  pz         
    68     -0.529322  4 F  px                87      0.529322  5 F  px         
    28     -0.430216  2 F  pz                69     -0.382271  4 F  py         
    88      0.382271  5 F  py                47      0.354973  3 F  pz         
    64      0.321314  4 F  px                83     -0.321314  5 F  px         

 Vector   40  Occ=0.000000D+00  E= 1.357565D+00  Symmetry=a"
              MO Center= -9.2D-02,  4.0D-01,  1.5D-13, r^2= 3.3D+00
   Bfn.  Coefficient  Atom+Function         Bfn.  Coefficient  Atom+Function  
  ----- ------------  ---------------      ----- ------------  ---------------
    51      0.546286  3 F  pz                69     -0.529303  4 F  py         
    88      0.529303  5 F  py                70     -0.455860  4 F  pz         
    89     -0.455860  5 F  pz                68      0.382281  4 F  px         
    87     -0.382281  5 F  px                32      0.371782  2 F  pz         
    47     -0.331351  3 F  pz                65      0.320875  4 F  py         

 Vector   41  Occ=0.000000D+00  E= 1.410531D+00  Symmetry=a'
              MO Center=  6.1D-02,  7.8D-02, -5.7D-15, r^2= 3.0D+00
   Bfn.  Coefficient  Atom+Function         Bfn.  Coefficient  Atom+Function  
  ----- ------------  ---------------      ----- ------------  ---------------
    15      1.297075  1 B  dxy               29     -0.832598  2 F  s          
    50     -0.787932  3 F  py                69     -0.775705  4 F  py         
    88     -0.775705  5 F  py                31     -0.742178  2 F  py         
    19     -0.722033  1 B  dzz               17      0.682274  1 B  dyy        
    12      0.447600  1 B  py                 8     -0.423240  1 B  py         

 Vector   42  Occ=0.000000D+00  E= 1.410556D+00  Symmetry=a'
              MO Center= -1.0D-01,  3.7D-03,  3.4D-15, r^2= 3.0D+00
   Bfn.  Coefficient  Atom+Function         Bfn.  Coefficient  Atom+Function  
  ----- ------------  ---------------      ----- ------------  ---------------
    14      1.088365  1 B  dxx               48     -0.853014  3 F  s          
    30      0.781720  2 F  px                68      0.782116  4 F  px         
    87      0.782116  5 F  px                49      0.735877  3 F  px         
    19     -0.626877  1 B  dzz               17     -0.461569  1 B  dyy        
    11     -0.447659  1 B  px                 7      0.423401  1 B  px         

 Vector   43  Occ=0.000000D+00  E= 1.410662D+00  Symmetry=a"
              MO Center=  4.2D-02, -7.9D-02, -6.8D-16, r^2= 3.0D+00
   Bfn.  Coefficient  Atom+Function         Bfn.  Coefficient  Atom+Function  
  ----- ------------  ---------------      ----- ------------  ---------------
    18      1.686461  1 B  dyz               16     -0.902389  1 B  dxz        
    32      0.806515  2 F  pz                51      0.806678  3 F  pz         
    70      0.773406  4 F  pz                89      0.773406  5 F  pz         
    67      0.699327  4 F  s                 86     -0.699327  5 F  s          
    13     -0.459178  1 B  pz                 9      0.433384  1 B  pz         

 Vector   44  Occ=0.000000D+00  E= 1.562900D+00  Symmetry=a'
              MO Center= -2.6D-02, -8.3D-02,  9.2D-14, r^2= 2.4D+00
   Bfn.  Coefficient  Atom+Function         Bfn.  Coefficient  Atom+Function  
  ----- ------------  ---------------      ----- ------------  ---------------
    12      0.771514  1 B  py                15     -0.768853  1 B  dxy        
    29      0.565151  2 F  s                 11      0.535897  1 B  px         
    31     -0.521115  2 F  py                17     -0.473595  1 B  dyy        
     8     -0.447428  1 B  py                 4      0.421112  1 B  py         
    27      0.401857  2 F  py                69     -0.359313  4 F  py         

 Vector   45  Occ=0.000000D+00  E= 1.562944D+00  Symmetry=a'
              MO Center=  6.2D-02,  1.5D-02, -6.2D-16, r^2= 2.4D+00
   Bfn.  Coefficient  Atom+Function         Bfn.  Coefficient  Atom+Function  
  ----- ------------  ---------------      ----- ------------  ---------------
    11      0.771677  1 B  px                14      0.602221  1 B  dxx        
    12     -0.536077  1 B  py                49     -0.519651  3 F  px         
    48     -0.505932  3 F  s                 19     -0.500586  1 B  dzz        
     7     -0.447269  1 B  px                 3      0.421165  1 B  px         
    45      0.400455  3 F  px                68     -0.360747  4 F  px         

 Vector   46  Occ=0.000000D+00  E= 1.563021D+00  Symmetry=a"
              MO Center= -3.6D-02,  6.7D-02, -9.1D-14, r^2= 2.4D+00
   Bfn.  Coefficient  Atom+Function         Bfn.  Coefficient  Atom+Function  
  ----- ------------  ---------------      ----- ------------  ---------------
    18      0.991992  1 B  dyz               13      0.940089  1 B  pz         
     9     -0.543959  1 B  pz                70     -0.545928  4 F  pz         
    89     -0.545928  5 F  pz                16     -0.530797  1 B  dxz        
     5      0.512818  1 B  pz                67      0.467387  4 F  s          
    86     -0.467387  5 F  s                 32     -0.402576  2 F  pz         

 Vector   47  Occ=0.000000D+00  E= 1.755548D+00  Symmetry=a'
              MO Center=  1.2D-02,  6.1D-03,  1.2D-15, r^2= 3.0D+00
   Bfn.  Coefficient  Atom+Function         Bfn.  Coefficient  Atom+Function  
  ----- ------------  ---------------      ----- ------------  ---------------
    48      1.672992  3 F  s                 67     -1.642603  4 F  s          
    86     -1.642603  5 F  s                 29      1.610949  2 F  s          
     8      1.028457  1 B  py                12      0.883543  1 B  py         
    44     -0.745894  3 F  s                 63      0.732250  4 F  s          
    82      0.732250  5 F  s                 25     -0.718245  2 F  s          

 Vector   48  Occ=0.000000D+00  E= 1.755645D+00  Symmetry=a"
              MO Center= -2.3D-01,  4.4D-01,  5.4D-16, r^2= 2.8D+00
   Bfn.  Coefficient  Atom+Function         Bfn.  Coefficient  Atom+Function  
  ----- ------------  ---------------      ----- ------------  ---------------
    67      2.322454  4 F  s                 86     -2.322454  5 F  s          
     9      1.175381  1 B  pz                63     -1.035517  4 F  s          
    82      1.035517  5 F  s                 13      1.008306  1 B  pz         
    69     -0.583510  4 F  py                88      0.583510  5 F  py         
    70      0.521471  4 F  pz                89      0.521471  5 F  pz         

 Vector   49  Occ=0.000000D+00  E= 1.755672D+00  Symmetry=a'
              MO Center=  2.2D-01, -4.4D-01,  9.9D-18, r^2= 2.8D+00
   Bfn.  Coefficient  Atom+Function         Bfn.  Coefficient  Atom+Function  
  ----- ------------  ---------------      ----- ------------  ---------------
    29      2.344031  2 F  s                 48     -2.300600  3 F  s          
    25     -1.045111  2 F  s                  7      1.028427  1 B  px         
    44      1.025706  3 F  s                 11      0.883555  1 B  px         
    31      0.833750  2 F  py                49      0.763198  3 F  px         
     8      0.568025  1 B  py                12      0.488266  1 B  py         

 Vector   50  Occ=0.000000D+00  E= 1.894769D+00  Symmetry=a'
              MO Center= -7.8D-05, -1.1D-04,  1.1D-15, r^2= 2.9D+00
   Bfn.  Coefficient  Atom+Function         Bfn.  Coefficient  Atom+Function  
  ----- ------------  ---------------      ----- ------------  ---------------
    10      2.241148  1 B  s                  6      1.464659  1 B  s          
    29     -1.422267  2 F  s                 48     -1.421875  3 F  s          
    67     -1.421910  4 F  s                 86     -1.421910  5 F  s          
    25      0.673224  2 F  s                 44      0.673044  3 F  s          
    63      0.673022  4 F  s                 82      0.673022  5 F  s          

 Vector   51  Occ=0.000000D+00  E= 2.286295D+00  Symmetry=a'
              MO Center=  2.3D-04, -6.8D-04, -1.1D-14, r^2= 2.0D+00
   Bfn.  Coefficient  Atom+Function         Bfn.  Coefficient  Atom+Function  
  ----- ------------  ---------------      ----- ------------  ---------------
    14      1.908965  1 B  dxx               17      1.908816  1 B  dyy        
    19      1.907270  1 B  dzz               29     -1.747984  2 F  s          
    48     -1.747832  3 F  s                 67     -1.746377  4 F  s          
    86     -1.746377  5 F  s                 49      0.898456  3 F  px         
    31     -0.809739  2 F  py                70     -0.738365  4 F  pz         

 Vector   52  Occ=0.000000D+00  E= 2.424484D+00  Symmetry=a"
              MO Center= -7.1D-02,  1.3D-01, -6.9D-13, r^2= 1.2D+00
   Bfn.  Coefficient  Atom+Function         Bfn.  Coefficient  Atom+Function  
  ----- ------------  ---------------      ----- ------------  ---------------
     9      3.021850  1 B  pz                18      1.773904  1 B  dyz        
    67      1.535365  4 F  s                 86     -1.535365  5 F  s          
     5     -1.385752  1 B  pz                16     -0.949187  1 B  dxz        
    70      0.544278  4 F  pz                89      0.544278  5 F  pz         
    69     -0.485011  4 F  py                88      0.485011  5 F  py         

 Vector   53  Occ=0.000000D+00  E= 2.424641D+00  Symmetry=a'
              MO Center=  4.7D-02, -1.4D-01, -1.9D-14, r^2= 1.2D+00
   Bfn.  Coefficient  Atom+Function         Bfn.  Coefficient  Atom+Function  
  ----- ------------  ---------------      ----- ------------  ---------------
     7      2.529598  1 B  px                 8      1.654043  1 B  py         
    29      1.624369  2 F  s                 48     -1.435110  3 F  s          
    15     -1.184736  1 B  dxy                3     -1.159896  1 B  px         
    17     -0.852682  1 B  dyy               31      0.773468  2 F  py         
    14      0.765556  1 B  dxx                4     -0.758478  1 B  py         

 Vector   54  Occ=0.000000D+00  E= 2.424727D+00  Symmetry=a'
              MO Center=  2.3D-02,  1.2D-02,  7.2D-13, r^2= 1.2D+00
   Bfn.  Coefficient  Atom+Function         Bfn.  Coefficient  Atom+Function  
  ----- ------------  ---------------      ----- ------------  ---------------
     8      2.529665  1 B  py                 7     -1.654256  1 B  px         
    48      1.214894  3 F  s                  4     -1.159906  1 B  py         
    67     -1.083278  4 F  s                 86     -1.083278  5 F  s          
    19      1.003080  1 B  dzz               29      0.945637  2 F  s          
    14     -0.850853  1 B  dxx                3      0.758464  1 B  px         

 Vector   55  Occ=0.000000D+00  E= 4.001483D+00  Symmetry=a'
              MO Center=  1.9D-01, -3.6D-01,  6.1D-12, r^2= 2.1D+00
   Bfn.  Coefficient  Atom+Function         Bfn.  Coefficient  Atom+Function  
  ----- ------------  ---------------      ----- ------------  ---------------
    53      1.018208  3 F  dxy               34     -0.657754  2 F  dxy        
    73      0.456991  4 F  dxz               92     -0.456991  5 F  dxz        
    36      0.429271  2 F  dyy               33     -0.399726  2 F  dxx        
    75      0.244534  4 F  dyz               94     -0.244534  5 F  dyz        
    72     -0.180095  4 F  dxy               91     -0.180095  5 F  dxy        

 Vector   56  Occ=0.000000D+00  E= 4.001492D+00  Symmetry=a"
              MO Center=  7.5D-02,  4.6D-02, -6.0D-12, r^2= 2.3D+00
   Bfn.  Coefficient  Atom+Function         Bfn.  Coefficient  Atom+Function  
  ----- ------------  ---------------      ----- ------------  ---------------
    54      0.924404  3 F  dxz               37      0.688245  2 F  dyz        
    73     -0.659007  4 F  dxz               92     -0.659007  5 F  dxz        
    35      0.394277  2 F  dxz               75     -0.312605  4 F  dyz        
    94     -0.312605  5 F  dyz               72      0.303149  4 F  dxy        
    91     -0.303149  5 F  dxy               71     -0.200038  4 F  dxx        

 Vector   57  Occ=0.000000D+00  E= 4.001508D+00  Symmetry=a"
              MO Center= -2.7D-01,  3.1D-01, -7.8D-14, r^2= 2.1D+00
   Bfn.  Coefficient  Atom+Function         Bfn.  Coefficient  Atom+Function  
  ----- ------------  ---------------      ----- ------------  ---------------
    37      0.609821  2 F  dyz               54     -0.512561  3 F  dxz        
    76     -0.485850  4 F  dzz               95      0.485850  5 F  dzz        
    72     -0.425835  4 F  dxy               91      0.425835  5 F  dxy        
    74      0.414991  4 F  dyy               93     -0.414991  5 F  dyy        
    35      0.348482  2 F  dxz               75     -0.321432  4 F  dyz        

 Vector   58  Occ=0.000000D+00  E= 4.032485D+00  Symmetry=a"
              MO Center=  1.1D-02, -1.7D-02,  4.4D-11, r^2= 2.3D+00
   Bfn.  Coefficient  Atom+Function         Bfn.  Coefficient  Atom+Function  
  ----- ------------  ---------------      ----- ------------  ---------------
    35      0.845492  2 F  dxz               56      0.831782  3 F  dyz        
    73      0.553237  4 F  dxz               92      0.553237  5 F  dxz        
    72      0.323499  4 F  dxy               91     -0.323499  5 F  dxy        
    75      0.295272  4 F  dyz               94      0.295272  5 F  dyz        
    54      0.279444  3 F  dxz               71     -0.241480  4 F  dxx        

 Vector   59  Occ=0.000000D+00  E= 4.032486D+00  Symmetry=a'
              MO Center=  4.0D-03, -7.1D-04, -4.4D-11, r^2= 2.3D+00
   Bfn.  Coefficient  Atom+Function         Bfn.  Coefficient  Atom+Function  
  ----- ------------  ---------------      ----- ------------  ---------------
    72      0.656509  4 F  dxy               91      0.656509  5 F  dxy        
    34      0.444190  2 F  dxy               55     -0.440977  3 F  dyy        
    57      0.425890  3 F  dzz               38      0.423408  2 F  dzz        
    75     -0.299779  4 F  dyz               94      0.299779  5 F  dyz        
    33     -0.268597  2 F  dxx               71      0.247427  4 F  dxx        

 Vector   60  Occ=0.000000D+00  E= 4.033871D+00  Symmetry=a'
              MO Center=  1.9D-01, -3.7D-01, -6.9D-14, r^2= 2.1D+00
   Bfn.  Coefficient  Atom+Function         Bfn.  Coefficient  Atom+Function  
  ----- ------------  ---------------      ----- ------------  ---------------
    38      0.530947  2 F  dzz               57     -0.529082  3 F  dzz        
    55      0.513526  3 F  dyy               33     -0.447781  2 F  dxx        
    34      0.389632  2 F  dxy               72     -0.285303  4 F  dxy        
    73     -0.286055  4 F  dxz               91     -0.285303  5 F  dxy        
    92      0.286055  5 F  dxz               71      0.215753  4 F  dxx        

 Vector   61  Occ=0.000000D+00  E= 4.033881D+00  Symmetry=a"
              MO Center=  6.1D-02,  6.0D-02,  9.0D-17, r^2= 2.3D+00
   Bfn.  Coefficient  Atom+Function         Bfn.  Coefficient  Atom+Function  
  ----- ------------  ---------------      ----- ------------  ---------------
    56      0.910936  3 F  dyz               35      0.683086  2 F  dxz        
    37     -0.393622  2 F  dyz               73     -0.386215  4 F  dxz        
    92     -0.386215  5 F  dxz               71      0.340898  4 F  dxx        
    90     -0.340898  5 F  dxx               72     -0.337197  4 F  dxy        
    91      0.337197  5 F  dxy               74     -0.320298  4 F  dyy        

 Vector   62  Occ=0.000000D+00  E= 4.033894D+00  Symmetry=a"
              MO Center= -2.6D-01,  3.2D-01, -1.1D-14, r^2= 2.1D+00
   Bfn.  Coefficient  Atom+Function         Bfn.  Coefficient  Atom+Function  
  ----- ------------  ---------------      ----- ------------  ---------------
    72      0.747736  4 F  dxy               91     -0.747736  5 F  dxy        
    35     -0.606402  2 F  dxz               56      0.522212  3 F  dyz        
    75     -0.432996  4 F  dyz               94     -0.432996  5 F  dyz        
    37      0.347030  2 F  dyz               71      0.306133  4 F  dxx        
    90     -0.306133  5 F  dxx               73      0.284534  4 F  dxz        

 Vector   63  Occ=0.000000D+00  E= 4.044570D+00  Symmetry=a'
              MO Center=  2.2D-01,  3.0D-01, -7.2D-15, r^2= 2.1D+00
   Bfn.  Coefficient  Atom+Function         Bfn.  Coefficient  Atom+Function  
  ----- ------------  ---------------      ----- ------------  ---------------
    72      0.687317  4 F  dxy               91      0.687317  5 F  dxy        
    57     -0.507532  3 F  dzz               55      0.447645  3 F  dyy        
    73      0.444433  4 F  dxz               92     -0.444433  5 F  dxz        
    53      0.337121  3 F  dxy               34     -0.285290  2 F  dxy        
    75     -0.269023  4 F  dyz               94      0.269023  5 F  dyz        

 Vector   64  Occ=0.000000D+00  E= 4.044575D+00  Symmetry=a"
              MO Center=  1.6D-01, -2.9D-01,  3.2D-12, r^2= 2.2D+00
   Bfn.  Coefficient  Atom+Function         Bfn.  Coefficient  Atom+Function  
  ----- ------------  ---------------      ----- ------------  ---------------
    56      1.022238  3 F  dyz               35     -0.790685  2 F  dxz        
    37      0.657624  2 F  dyz               72     -0.416406  4 F  dxy        
    91      0.416406  5 F  dxy               71     -0.252203  4 F  dxx        
    90      0.252203  5 F  dxx               76      0.249433  4 F  dzz        
    95     -0.249433  5 F  dzz               54     -0.108677  3 F  dxz        

 Vector   65  Occ=0.000000D+00  E= 4.044580D+00  Symmetry=a'
              MO Center= -3.8D-01,  2.5D-03, -3.2D-12, r^2= 2.1D+00
   Bfn.  Coefficient  Atom+Function         Bfn.  Coefficient  Atom+Function  
  ----- ------------  ---------------      ----- ------------  ---------------
    38     -0.507926  2 F  dzz               75     -0.502143  4 F  dyz        
    94      0.502143  5 F  dyz               33      0.477591  2 F  dxx        
    71      0.453179  4 F  dxx               90      0.453179  5 F  dxx        
    74     -0.329839  4 F  dyy               93     -0.329839  5 F  dyy        
    34     -0.206293  2 F  dxy               52     -0.195859  3 F  dxx        

 Vector   66  Occ=0.000000D+00  E= 4.306475D+00  Symmetry=a"
              MO Center=  1.9D-01, -3.5D-01, -8.5D-13, r^2= 2.1D+00
   Bfn.  Coefficient  Atom+Function         Bfn.  Coefficient  Atom+Function  
  ----- ------------  ---------------      ----- ------------  ---------------
    54      1.068167  3 F  dxz               37     -0.807795  2 F  dyz        
    35     -0.714283  2 F  dxz                9      0.434286  1 B  pz         
    18     -0.429367  1 B  dyz               72     -0.306414  4 F  dxy        
    91      0.306414  5 F  dxy               76     -0.304132  4 F  dzz        
    95      0.304132  5 F  dzz               74      0.256229  4 F  dyy        

 Vector   67  Occ=0.000000D+00  E= 4.306580D+00  Symmetry=a'
              MO Center= -1.1D-01, -4.8D-02,  8.3D-13, r^2= 2.2D+00
   Bfn.  Coefficient  Atom+Function         Bfn.  Coefficient  Atom+Function  
  ----- ------------  ---------------      ----- ------------  ---------------
    53      0.732464  3 F  dxy               34      0.594734  2 F  dxy        
    72     -0.545088  4 F  dxy               91     -0.545088  5 F  dxy        
    36     -0.434321  2 F  dyy                8      0.347224  1 B  py         
    76     -0.325779  4 F  dzz               95     -0.325779  5 F  dzz        
    74      0.308930  4 F  dyy               93      0.308930  5 F  dyy        

 Vector   68  Occ=0.000000D+00  E= 4.306755D+00  Symmetry=a'
              MO Center= -7.8D-02,  4.0D-01,  2.4D-14, r^2= 2.1D+00
   Bfn.  Coefficient  Atom+Function         Bfn.  Coefficient  Atom+Function  
  ----- ------------  ---------------      ----- ------------  ---------------
    73      0.861112  4 F  dxz               92     -0.861112  5 F  dxz        
    53     -0.646581  3 F  dxy               75      0.508158  4 F  dyz        
    94     -0.508158  5 F  dyz               34      0.456052  2 F  dxy        
     7     -0.347406  1 B  px                15     -0.298037  1 B  dxy        
     8     -0.260834  1 B  py                55      0.225707  3 F  dyy        

 Vector   69  Occ=0.000000D+00  E= 4.456593D+00  Symmetry=a'
              MO Center=  8.5D-05, -1.8D-04,  7.9D-15, r^2= 2.4D+00
   Bfn.  Coefficient  Atom+Function         Bfn.  Coefficient  Atom+Function  
  ----- ------------  ---------------      ----- ------------  ---------------
     6      0.882247  1 B  s                 29     -0.656779  2 F  s          
    48     -0.656825  3 F  s                 67     -0.656676  4 F  s          
    75      0.655355  4 F  dyz               86     -0.656676  5 F  s          
    94     -0.655355  5 F  dyz               34     -0.629663  2 F  dxy        
    52     -0.517333  3 F  dxx               49      0.456314  3 F  px         

 Vector   70  Occ=0.000000D+00  E= 4.490263D+00  Symmetry=a"
              MO Center=  1.2D-04, -1.3D-05,  1.8D-16, r^2= 2.3D+00
   Bfn.  Coefficient  Atom+Function         Bfn.  Coefficient  Atom+Function  
  ----- ------------  ---------------      ----- ------------  ---------------
    37      0.876174  2 F  dyz               54      0.860947  3 F  dxz        
    16      0.821990  1 B  dxz               73      0.548848  4 F  dxz        
    92      0.548848  5 F  dxz               18      0.439679  1 B  dyz        
    72     -0.366539  4 F  dxy               91      0.366539  5 F  dxy        
    75      0.293829  4 F  dyz               94      0.293829  5 F  dyz        

 Vector   71  Occ=0.000000D+00  E= 4.490358D+00  Symmetry=a'
              MO Center=  8.2D-06,  6.3D-05,  2.1D-15, r^2= 2.3D+00
   Bfn.  Coefficient  Atom+Function         Bfn.  Coefficient  Atom+Function  
  ----- ------------  ---------------      ----- ------------  ---------------
    53      0.884207  3 F  dxy               15      0.671507  1 B  dxy        
    34      0.462676  2 F  dxy               76      0.449794  4 F  dzz        
    95      0.449794  5 F  dzz               33      0.427804  2 F  dxx        
    17     -0.359264  1 B  dyy               36     -0.337271  2 F  dyy        
    75      0.335154  4 F  dyz               94     -0.335154  5 F  dyz        

 Vector   72  Occ=0.000000D+00  E= 4.764285D+00  Symmetry=a'
              MO Center=  4.1D-01, -6.4D-01,  1.9D-13, r^2= 2.0D+00
   Bfn.  Coefficient  Atom+Function         Bfn.  Coefficient  Atom+Function  
  ----- ------------  ---------------      ----- ------------  ---------------
     7      1.755169  1 B  px                48     -1.438824  3 F  s          
    29      1.366714  2 F  s                 49      0.959636  3 F  px         
     8      0.858966  1 B  py                34      0.857715  2 F  dxy        
    31      0.851432  2 F  py                15     -0.842580  1 B  dxy        
    52     -0.736354  3 F  dxx               14      0.671693  1 B  dxx        

 Vector   73  Occ=0.000000D+00  E= 4.764338D+00  Symmetry=a"
              MO Center= -3.6D-01,  6.7D-01, -2.0D-13, r^2= 2.0D+00
   Bfn.  Coefficient  Atom+Function         Bfn.  Coefficient  Atom+Function  
  ----- ------------  ---------------      ----- ------------  ---------------
     9      1.953788  1 B  pz                67      1.403723  4 F  s          
    86     -1.403723  5 F  s                 18      1.378157  1 B  dyz        
    75     -1.018307  4 F  dyz               94     -1.018307  5 F  dyz        
    70      0.744819  4 F  pz                89      0.744819  5 F  pz         
    16     -0.737323  1 B  dxz               73      0.544955  4 F  dxz        

 Vector   74  Occ=0.000000D+00  E= 4.764359D+00  Symmetry=a'
              MO Center= -4.8D-02, -2.6D-02, -6.7D-16, r^2= 2.6D+00
   Bfn.  Coefficient  Atom+Function         Bfn.  Coefficient  Atom+Function  
  ----- ------------  ---------------      ----- ------------  ---------------
     8      1.755375  1 B  py                29      1.042605  2 F  s          
    67     -0.992143  4 F  s                 86     -0.992143  5 F  s          
    48      0.941064  3 F  s                  7     -0.859185  1 B  px         
    19      0.780509  1 B  dzz               34      0.698731  2 F  dxy        
    15     -0.681877  1 B  dxy               49     -0.641079  3 F  px         

 Vector   75  Occ=0.000000D+00  E= 6.242880D+00  Symmetry=a"
              MO Center=  1.9D-04, -3.7D-04, -8.0D-15, r^2= 2.3D+00
   Bfn.  Coefficient  Atom+Function         Bfn.  Coefficient  Atom+Function  
  ----- ------------  ---------------      ----- ------------  ---------------
    28     -0.681101  2 F  pz                47      0.681083  3 F  pz         
    24      0.623064  2 F  pz                43     -0.623048  3 F  pz         
    64     -0.600160  4 F  px                83      0.600160  5 F  px         
    60      0.549031  4 F  px                79     -0.549031  5 F  px         
    65     -0.321219  4 F  py                84      0.321219  5 F  py         

 Vector   76  Occ=0.000000D+00  E= 6.242892D+00  Symmetry=a'
              MO Center=  8.4D-05, -2.1D-04, -1.1D-15, r^2= 2.3D+00
   Bfn.  Coefficient  Atom+Function         Bfn.  Coefficient  Atom+Function  
  ----- ------------  ---------------      ----- ------------  ---------------
    46     -0.676036  3 F  py                42      0.618430  3 F  py         
    26      0.608028  2 F  px                22     -0.556217  2 F  px         
    65      0.491456  4 F  py                84      0.491456  5 F  py         
    61     -0.449583  4 F  py                80     -0.449583  5 F  py         
    66      0.390841  4 F  pz                85     -0.390841  5 F  pz         

 Vector   77  Occ=0.000000D+00  E= 6.251651D+00  Symmetry=a'
              MO Center=  1.1D-04, -4.4D-04,  2.0D-15, r^2= 2.4D+00
   Bfn.  Coefficient  Atom+Function         Bfn.  Coefficient  Atom+Function  
  ----- ------------  ---------------      ----- ------------  ---------------
    45     -0.680119  3 F  px                41      0.619364  3 F  px         
    27      0.611571  2 F  py                66      0.560323  4 F  pz         
    85     -0.560323  5 F  pz                23     -0.556932  2 F  py         
    62     -0.510298  4 F  pz                81      0.510298  5 F  pz         
    65     -0.346980  4 F  py                84     -0.346980  5 F  py         

 Vector   78  Occ=0.000000D+00  E= 6.366541D+00  Symmetry=a'
              MO Center= -2.3D-02,  1.7D-01, -1.5D-13, r^2= 2.4D+00
   Bfn.  Coefficient  Atom+Function         Bfn.  Coefficient  Atom+Function  
  ----- ------------  ---------------      ----- ------------  ---------------
    64      0.660997  4 F  px                83      0.660997  5 F  px         
    46      0.608618  3 F  py                60     -0.578675  4 F  px         
    79     -0.578675  5 F  px                27     -0.563139  2 F  py         
    42     -0.532798  3 F  py                23      0.492986  2 F  py         
    65      0.425284  4 F  py                84      0.425284  5 F  py         

 Vector   79  Occ=0.000000D+00  E= 6.366599D+00  Symmetry=a'
              MO Center= -5.4D-02, -2.3D-02, -5.2D-16, r^2= 2.4D+00
   Bfn.  Coefficient  Atom+Function         Bfn.  Coefficient  Atom+Function  
  ----- ------------  ---------------      ----- ------------  ---------------
    26      0.742120  2 F  px                22     -0.649659  2 F  px         
    66     -0.605594  4 F  pz                85      0.605594  5 F  pz         
    62      0.530178  4 F  pz                81     -0.530178  5 F  pz         
    46     -0.510631  3 F  py                42      0.447016  3 F  py         
    45     -0.426434  3 F  px                41      0.373303  3 F  px         

 Vector   80  Occ=0.000000D+00  E= 6.366631D+00  Symmetry=a"
              MO Center=  8.3D-02, -1.6D-01,  1.4D-13, r^2= 2.4D+00
   Bfn.  Coefficient  Atom+Function         Bfn.  Coefficient  Atom+Function  
  ----- ------------  ---------------      ----- ------------  ---------------
    28      0.802101  2 F  pz                47      0.801203  3 F  pz         
    24     -0.702150  2 F  pz                43     -0.701370  3 F  pz         
    65      0.535987  4 F  py                84     -0.535987  5 F  py         
    61     -0.469236  4 F  py                80      0.469236  5 F  py         
    32     -0.394627  2 F  pz                51     -0.394192  3 F  pz         

 Vector   81  Occ=0.000000D+00  E= 6.375733D+00  Symmetry=a'
              MO Center=  1.9D-01, -3.6D-01, -3.3D-15, r^2= 2.3D+00
   Bfn.  Coefficient  Atom+Function         Bfn.  Coefficient  Atom+Function  
  ----- ------------  ---------------      ----- ------------  ---------------
    46      0.874776  3 F  py                26      0.788113  2 F  px         
    42     -0.760603  3 F  py                22     -0.685252  2 F  px         
    64     -0.451398  4 F  px                83     -0.451398  5 F  px         
    50     -0.405938  3 F  py                27     -0.393272  2 F  py         
    60      0.392497  4 F  px                79      0.392497  5 F  px         

 Vector   82  Occ=0.000000D+00  E= 6.375741D+00  Symmetry=a"
              MO Center=  1.5D-02,  8.5D-03,  6.7D-15, r^2= 2.4D+00
   Bfn.  Coefficient  Atom+Function         Bfn.  Coefficient  Atom+Function  
  ----- ------------  ---------------      ----- ------------  ---------------
    47     -0.730825  3 F  pz                28      0.709754  2 F  pz         
    64     -0.642036  4 F  px                83      0.642036  5 F  px         
    43      0.635440  3 F  pz                24     -0.617119  2 F  pz         
    60      0.558247  4 F  px                79     -0.558247  5 F  px         
    51      0.339122  3 F  pz                32     -0.329308  2 F  pz         

 Vector   83  Occ=0.000000D+00  E= 6.375760D+00  Symmetry=a"
              MO Center= -2.1D-01,  3.6D-01,  1.4D-14, r^2= 2.3D+00
   Bfn.  Coefficient  Atom+Function         Bfn.  Coefficient  Atom+Function  
  ----- ------------  ---------------      ----- ------------  ---------------
    65      0.646790  4 F  py                84     -0.646790  5 F  py         
    61     -0.562397  4 F  py                80      0.562397  5 F  py         
    28     -0.516449  2 F  pz                66      0.509056  4 F  pz         
    85      0.509056  5 F  pz                47     -0.487764  3 F  pz         
    24      0.449019  2 F  pz                62     -0.442604  4 F  pz         

 Vector   84  Occ=0.000000D+00  E= 6.671682D+00  Symmetry=a"
              MO Center= -2.5D-01,  4.7D-01, -3.4D-12, r^2= 2.1D+00
   Bfn.  Coefficient  Atom+Function         Bfn.  Coefficient  Atom+Function  
  ----- ------------  ---------------      ----- ------------  ---------------
    66      0.968506  4 F  pz                85      0.968506  5 F  pz         
    18      0.793868  1 B  dyz               62     -0.768748  4 F  pz         
    81     -0.768748  5 F  pz                 9      0.747697  1 B  pz         
    67      0.614347  4 F  s                 86     -0.614347  5 F  s          
    16     -0.424764  1 B  dxz               28      0.410861  2 F  pz         

 Vector   85  Occ=0.000000D+00  E= 6.671754D+00  Symmetry=a'
              MO Center=  1.9D-01, -5.0D-01,  2.6D-13, r^2= 2.1D+00
   Bfn.  Coefficient  Atom+Function         Bfn.  Coefficient  Atom+Function  
  ----- ------------  ---------------      ----- ------------  ---------------
    45      0.995936  3 F  px                27      0.853016  2 F  py         
    41     -0.791606  3 F  px                23     -0.679245  2 F  py         
    26      0.668015  2 F  px                29      0.640589  2 F  s          
     7      0.636113  1 B  px                48     -0.586208  3 F  s          
    22     -0.529266  2 F  px                15     -0.521931  1 B  dxy        

 Vector   86  Occ=0.000000D+00  E= 6.671838D+00  Symmetry=a'
              MO Center=  6.0D-02,  3.0D-02,  3.1D-12, r^2= 2.3D+00
   Bfn.  Coefficient  Atom+Function         Bfn.  Coefficient  Atom+Function  
  ----- ------------  ---------------      ----- ------------  ---------------
    27      0.742200  2 F  py                45     -0.737148  3 F  px         
     8      0.636336  1 B  py                65      0.594656  4 F  py         
    84      0.594656  5 F  py                23     -0.588603  2 F  py         
    41      0.586520  3 F  px                48      0.472348  3 F  s          
    61     -0.470557  4 F  py                80     -0.470557  5 F  py         

 Vector   87  Occ=0.000000D+00  E= 8.485341D+00  Symmetry=a'
              MO Center= -6.0D-02, -3.4D-02,  4.2D-17, r^2= 2.3D+00
   Bfn.  Coefficient  Atom+Function         Bfn.  Coefficient  Atom+Function  
  ----- ------------  ---------------      ----- ------------  ---------------
    25      1.507070  2 F  s                 63     -1.418339  4 F  s          
    82     -1.418339  5 F  s                 44      1.329567  3 F  s          
    38     -0.846476  2 F  dzz               33     -0.838132  2 F  dxx        
    36     -0.824890  2 F  dyy               71      0.797230  4 F  dxx        
    74      0.800395  4 F  dyy               90      0.797230  5 F  dxx        

 Vector   88  Occ=0.000000D+00  E= 8.485399D+00  Symmetry=a'
              MO Center=  4.3D-01, -6.5D-01, -1.7D-18, r^2= 1.7D+00
   Bfn.  Coefficient  Atom+Function         Bfn.  Coefficient  Atom+Function  
  ----- ------------  ---------------      ----- ------------  ---------------
    44     -2.068638  3 F  s                 25      1.942954  2 F  s          
    57      1.172866  3 F  dzz               55      1.162834  3 F  dyy        
    52      1.108957  3 F  dxx               38     -1.102308  2 F  dzz        
    33     -1.089794  2 F  dxx               36     -1.043252  2 F  dyy        
    48     -0.933328  3 F  s                 29      0.876581  2 F  s          

 Vector   89  Occ=0.000000D+00  E= 8.485426D+00  Symmetry=a"
              MO Center= -3.7D-01,  6.9D-01, -3.7D-14, r^2= 1.7D+00
   Bfn.  Coefficient  Atom+Function         Bfn.  Coefficient  Atom+Function  
  ----- ------------  ---------------      ----- ------------  ---------------
    63      2.007769  4 F  s                 82     -2.007769  5 F  s          
    71     -1.131057  4 F  dxx               90      1.131057  5 F  dxx        
    74     -1.111970  4 F  dyy               93      1.111970  5 F  dyy        
    76     -1.100237  4 F  dzz               95      1.100237  5 F  dzz        
    67      0.905728  4 F  s                 86     -0.905728  5 F  s          

 Vector   90  Occ=0.000000D+00  E= 8.603732D+00  Symmetry=a'
              MO Center= -1.0D-04, -1.7D-05,  3.7D-14, r^2= 2.4D+00
   Bfn.  Coefficient  Atom+Function         Bfn.  Coefficient  Atom+Function  
  ----- ------------  ---------------      ----- ------------  ---------------
    25      1.365066  2 F  s                 44      1.364813  3 F  s          
    63      1.364931  4 F  s                 82      1.364931  5 F  s          
[...]
    63      1.364763  4 F  s                 82      1.364763  5 F  s          
    29      0.966362  2 F  s                 48      0.966313  3 F  s          
    67      0.966199  4 F  s                 86      0.966199  5 F  s          
    10     -0.872583  1 B  s                 38     -0.830795  2 F  dzz        

 Vector   91  Occ=0.000000D+00  E= 1.640708D+01  Symmetry=a'
              MO Center=  5.1D-05,  6.2D-05,  1.5D-18, r^2= 2.2D-01
   Bfn.  Coefficient  Atom+Function         Bfn.  Coefficient  Atom+Function  
  ----- ------------  ---------------      ----- ------------  ---------------
     2      2.534386  1 B  s                  1     -1.990318  1 B  s          
     6     -1.204454  1 B  s                 14      0.794002  1 B  dxx        
    17      0.793994  1 B  dyy               19      0.794008  1 B  dzz        
    29     -0.230389  2 F  s                 48     -0.230357  3 F  s          
    67     -0.230354  4 F  s                 86     -0.230354  5 F  s          

 Vector   92  Occ=0.000000D+00  E= 7.406822D+01  Symmetry=a"
              MO Center= -3.8D-01,  7.2D-01, -2.0D-09, r^2= 1.4D+00
   Bfn.  Coefficient  Atom+Function         Bfn.  Coefficient  Atom+Function  
  ----- ------------  ---------------      ----- ------------  ---------------
    59      1.966870  4 F  s                 78     -1.966870  5 F  s          
    58     -1.696987  4 F  s                 77      1.696987  5 F  s          
    63     -0.812489  4 F  s                 82      0.812489  5 F  s          
    71      0.394096  4 F  dxx               90     -0.394096  5 F  dxx        
    74      0.391367  4 F  dyy               76      0.389708  4 F  dzz        

 Vector   93  Occ=0.000000D+00  E= 7.406823D+01  Symmetry=a'
              MO Center=  2.4D-01,  1.0D-01,  1.9D-09, r^2= 2.0D+00
   Bfn.  Coefficient  Atom+Function         Bfn.  Coefficient  Atom+Function  
  ----- ------------  ---------------      ----- ------------  ---------------
    40      1.693417  3 F  s                 39     -1.461056  3 F  s          
    59     -1.372290  4 F  s                 78     -1.372290  5 F  s          
    58      1.183992  4 F  s                 77      1.183992  5 F  s          
    21      1.050302  2 F  s                 20     -0.906186  2 F  s          
    44     -0.699530  3 F  s                 63      0.566875  4 F  s          

 Vector   94  Occ=0.000000D+00  E= 7.406825D+01  Symmetry=a'
              MO Center=  1.4D-01, -8.2D-01,  2.5D-11, r^2= 1.3D+00
   Bfn.  Coefficient  Atom+Function         Bfn.  Coefficient  Atom+Function  
  ----- ------------  ---------------      ----- ------------  ---------------
    21      2.167687  2 F  s                 20     -1.870250  2 F  s          
    40     -1.713126  3 F  s                 39      1.478061  3 F  s          
    25     -0.895445  2 F  s                 44      0.707671  3 F  s          
    33      0.433626  2 F  dxx               38      0.435412  2 F  dzz        
    36      0.426114  2 F  dyy               55     -0.342930  3 F  dyy        

 Vector   95  Occ=0.000000D+00  E= 7.417613D+01  Symmetry=a'
              MO Center=  6.0D-05, -3.0D-04,  6.3D-13, r^2= 2.0D+00
   Bfn.  Coefficient  Atom+Function         Bfn.  Coefficient  Atom+Function  
  ----- ------------  ---------------      ----- ------------  ---------------
    21      1.394076  2 F  s                 40      1.393911  3 F  s          
    59      1.393539  4 F  s                 78      1.393539  5 F  s          
    20     -1.201009  2 F  s                 39     -1.200867  3 F  s          
    58     -1.200545  4 F  s                 77     -1.200545  5 F  s          
    25     -0.567011  2 F  s                 44     -0.566945  3 F  s          


 center of mass
 --------------
 x =   0.00000241 y =  -0.00003544 z =   0.00000000

 moments of inertia (a.u.)
 ------------------
         361.208400012838           0.018200060180           0.000000000000
           0.018200060180         361.229013604265           0.000000000000
           0.000000000000           0.000000000000         361.200981991712

     Multipole analysis of the density
     ---------------------------------

     L   x y z        total         alpha         beta         nuclear
     -   - - -        -----         -----         ----         -------
     0   0 0 0     -1.000000    -21.000000    -21.000000     41.000000

     1   1 0 0      0.000170      0.000046      0.000046      0.000079
     1   0 1 0      0.000198      0.000842      0.000842     -0.001485
     1   0 0 1      0.000000      0.000000      0.000000      0.000000

     2   2 0 0    -22.804223    -54.181956    -54.181956     85.559688
     2   1 1 0      0.000280      0.004451      0.004451     -0.008622
     2   1 0 1      0.000000      0.000000      0.000000      0.000000
     2   0 2 0    -22.804068    -54.176996    -54.176996     85.549923
     2   0 1 1      0.000000      0.000000      0.000000      0.000000
     2   0 0 2    -22.804431    -54.183817    -54.183817     85.563202


 Parallel integral file used      87 records with       0 large values


            General Information
            -------------------
          SCF calculation type: DFT
          Wavefunction type:  closed shell.
          No. of atoms     :     5
          No. of electrons :    42
           Alpha electrons :    21
            Beta electrons :    21
          Charge           :    -1
          Spin multiplicity:     1
          Use of symmetry is: on ; symmetry adaption is: on 
          Maximum number of iterations:  30
          AO basis - number of functions:    95
                     number of shells:    40
          Convergence on energy requested:  1.00D-06
          Convergence on density requested:  1.00D-05
          Convergence on gradient requested:  5.00D-04

              XC Information
              --------------
                         B3LYP Method XC Potential
                     Hartree-Fock (Exact) Exchange  0.200          
                        Slater Exchange Functional  0.800 local    
                    Becke 1988 Exchange Functional  0.720 non-local
              Lee-Yang-Parr Correlation Functional  0.810          
                  VWN I RPA Correlation Functional  0.190 local    

             Grid Information
             ----------------
          Grid used for XC integration:  medium    
          Radial quadrature: Mura-Knowles        
          Angular quadrature: Lebedev. 
          Tag              B.-S. Rad. Rad. Pts. Rad. Cut. Ang. Pts.
          ---              ---------- --------- --------- ---------
          B                   0.85       49           5.0       434
          F                   0.50       49           6.0       434
          Grid pruning is: on 
          Number of quadrature shells:   196
          Spatial weights used:  Erf1

          Convergence Information
          -----------------------
          Convergence aids based upon iterative change in 
          total energy or number of iterations. 
          Levelshifting, if invoked, occurs when the 
          HOMO/LUMO gap drops below (HL_TOL):  1.00D-02
          DIIS, if invoked, will attempt to extrapolate 
          using up to (NFOCK): 10 stored Fock matrices.

                    Damping( 0%)  Levelshifting(0.5)       DIIS
                  --------------- ------------------- ---------------
          dE  on:    start            ASAP                start   
          dE off:    2 iters         30 iters            30 iters 


      Screening Tolerance Information
      -------------------------------
          Density screening/tol_rho:  1.00D-10
          AO Gaussian exp screening on grid/accAOfunc:  14
          CD Gaussian exp screening on grid/accCDfunc:  20
          XC Gaussian exp screening on grid/accXCfunc:  20
          Schwarz screening/accCoul:  1.00D-08



                            NWChem DFT Gradient Module
                            --------------------------


                                        BF4



  charge          =  -1.00
  wavefunction    = closed shell

  Using symmetry


                         DFT ENERGY GRADIENTS

    atom               coordinates                        gradient
                 x          y          z           x          y          z
   1 B       0.000095   0.000113   0.000000    0.000018   0.000045   0.000000
   2 F      -1.194733  -2.387815   0.000000    0.000023   0.000046   0.000000
   3 F       2.649671  -0.330695   0.000000   -0.000029  -0.000023   0.000000
   4 F      -0.727491   1.359141  -2.180255   -0.000006  -0.000034   0.000021
   5 F      -0.727491   1.359141   2.180255   -0.000006  -0.000034  -0.000021

                 ----------------------------------------
                 |  Time  |  1-e(secs)   |  2-e(secs)   |
                 ----------------------------------------
                 |  CPU   |       0.00   |       0.11   |
                 ----------------------------------------
                 |  WALL  |       0.00   |       0.11   |
                 ----------------------------------------

  Step       Energy      Delta E   Gmax     Grms     Xrms     Xmax   Walltime
  ---- ---------------- -------- -------- -------- -------- -------- --------
@    2    -424.65238300 -5.0D-07  0.00005  0.00003  0.00066  0.00128     12.1
                                     ok       ok       ok       ok  



                                Z-matrix (user)
                                -------- 

 Units are Angstrom for bonds and degrees for angles

      Type          Name      I     J     K     L     M      Value     Gradient
      ----------- --------  ----- ----- ----- ----- ----- ---------- ----------
    1 Stretch                  2     1                       1.41299   -0.00005
    2 Stretch                  3     1                       1.41298   -0.00003
    3 Bend                     3     1     2               109.46492   -0.00004
    4 Stretch                  4     1                       1.41300   -0.00003
    5 Bend                     4     1     2               109.46535   -0.00003
    6 Torsion                  4     1     2     3         120.00070    0.00000
    7 Stretch                  5     1                       1.41300   -0.00003
    8 Bend                     5     1     2               109.46535   -0.00003
    9 Torsion                  5     1     2     3        -120.00070   -0.00000


      ----------------------
      Optimization converged
      ----------------------


  Step       Energy      Delta E   Gmax     Grms     Xrms     Xmax   Walltime
  ---- ---------------- -------- -------- -------- -------- -------- --------
@    2    -424.65238300 -5.0D-07  0.00005  0.00003  0.00066  0.00128     12.1
                                     ok       ok       ok       ok  



                                Z-matrix (user)
                                -------- 

 Units are Angstrom for bonds and degrees for angles

      Type          Name      I     J     K     L     M      Value     Gradient
      ----------- --------  ----- ----- ----- ----- ----- ---------- ----------
    1 Stretch                  2     1                       1.41299   -0.00005
    2 Stretch                  3     1                       1.41298   -0.00003
    3 Bend                     3     1     2               109.46492   -0.00004
    4 Stretch                  4     1                       1.41300   -0.00003
    5 Bend                     4     1     2               109.46535   -0.00003
    6 Torsion                  4     1     2     3         120.00070    0.00000
    7 Stretch                  5     1                       1.41300   -0.00003
    8 Bend                     5     1     2               109.46535   -0.00003
    9 Torsion                  5     1     2     3        -120.00070   -0.00000



                         Geometry "geometry" -> "geometry"
                         ---------------------------------

 Output coordinates in angstroms (scale by  1.889725989 to convert to a.u.)

  No.       Tag          Charge          X              Y              Z
 ---- ---------------- ---------- -------------- -------------- --------------
    1 B                    5.0000     0.00005018     0.00005956     0.00000000
    2 F                    9.0000    -0.63222568    -1.26357714     0.00000000
    3 F                    9.0000     1.40214578    -0.17499641     0.00000000
    4 F                    9.0000    -0.38497167     0.71922657    -1.15374127
    5 F                    9.0000    -0.38497167     0.71922657     1.15374127

      Atomic Mass 
      ----------- 

      B                 11.009310
      F                 18.998400


 Effective nuclear repulsion energy (a.u.)     178.8699796951

            Nuclear Dipole moment (a.u.) 
            ----------------------------
        X                 Y               Z
 ---------------- ---------------- ----------------
     0.0000790132    -0.0014849698     0.0000000000

      Symmetry information
      --------------------

 Group name             Cs        
 Group number              2
 Group order               2
 No. of unique centers     4

      Symmetry unique atoms

     1    2    3    4


                Final and change from initial internal coordinates
                --------------------------------------------------



                                Z-matrix (user)
                                -------- 

 Units are Angstrom for bonds and degrees for angles

      Type          Name      I     J     K     L     M      Value       Change
      ----------- --------  ----- ----- ----- ----- ----- ---------- ----------
    1 Stretch                  2     1                       1.41299   -0.00375
    2 Stretch                  3     1                       1.41298   -0.00370
    3 Bend                     3     1     2               109.46492   -0.01537
    4 Stretch                  4     1                       1.41300   -0.00369
    5 Bend                     4     1     2               109.46535   -0.01180
    6 Torsion                  4     1     2     3         120.00070   -0.01138
    7 Stretch                  5     1                       1.41300   -0.00369
    8 Bend                     5     1     2               109.46535   -0.01180
    9 Torsion                  5     1     2     3        -120.00070    0.01138

 ==============================================================================
                                internuclear distances
 ------------------------------------------------------------------------------
       center one      |      center two      | atomic units |  angstroms
 ------------------------------------------------------------------------------
    2 F                |   1 B                |     2.67017  |     1.41299
    3 F                |   1 B                |     2.67015  |     1.41298
    4 F                |   1 B                |     2.67018  |     1.41300
    5 F                |   1 B                |     2.67018  |     1.41300
 ------------------------------------------------------------------------------
                         number of included internuclear distances:          4
 ==============================================================================



 ==============================================================================
                                 internuclear angles
 ------------------------------------------------------------------------------
        center 1       |       center 2       |       center 3       |  degrees
 ------------------------------------------------------------------------------
    2 F                |   1 B                |   3 F                |   109.46
    2 F                |   1 B                |   4 F                |   109.47
    2 F                |   1 B                |   5 F                |   109.47
    3 F                |   1 B                |   4 F                |   109.48
    3 F                |   1 B                |   5 F                |   109.48
    4 F                |   1 B                |   5 F                |   109.48
 ------------------------------------------------------------------------------
                            number of included internuclear angles:          6
 ==============================================================================




 Task  times  cpu:        5.5s     wall:       11.6s


                                NWChem Input Module
                                -------------------


 Summary of allocated global arrays
-----------------------------------
  No active global arrays



                         GA Statistics for process    0
                         ------------------------------

       create   destroy   get      put      acc     scatter   gather  read&inc
calls:  650      650     9717     3135     1117        0        0      445     
number of processes/call 1.73e+00 2.07e+00 3.25e+00 0.00e+00 0.00e+00
bytes total:             4.54e+07 7.60e+06 2.07e+07 0.00e+00 0.00e+00 3.56e+03
bytes remote:            3.68e+07 3.76e+06 1.79e+07 0.00e+00 0.00e+00 0.00e+00
Max memory consumed for GA by this process: 423136 bytes

MA_summarize_allocated_blocks: starting scan ...
MA_summarize_allocated_blocks: scan completed: 0 heap blocks, 0 stack blocks
MA usage statistics:

	allocation statistics:
					      heap	     stack
					      ----	     -----
	current number of blocks	         0	         0
	maximum number of blocks	        25	        55
	current total bytes		         0	         0
	maximum total bytes		   8184800	  32950456
	maximum total K-bytes		      8185	     32951
	maximum total M-bytes		         9	        33


                                     CITATION
                                     --------
                Please cite the following reference when publishing
                           results obtained with NWChem:

                 M. Valiev, E.J. Bylaska, N. Govind, K. Kowalski,
              T.P. Straatsma, H.J.J. van Dam, D. Wang, J. Nieplocha,
                        E. Apra, T.L. Windus, W.A. de Jong
                 "NWChem: a comprehensive and scalable open-source
                  solution for large scale molecular simulations"
                      Comput. Phys. Commun. 181, 1477 (2010)
                           doi:10.1016/j.cpc.2010.04.018

                                      AUTHORS
                                      -------
          E. Apra, E. J. Bylaska, W. A. de Jong, N. Govind, K. Kowalski,
       T. P. Straatsma, M. Valiev, H. J. J. van Dam, D. Wang, T. L. Windus,
        J. Hammond, J. Autschbach, K. Bhaskaran-Nair, J. Brabec, K. Lopata,
    S. A. Fischer, S. Krishnamoorthy, M. Jacquelin, W. Ma, M. Klemm, O. Villa,
      Y. Chen, V. Anisimov, F. Aquino, S. Hirata, M. T. Hackler, V. Konjkov,
            D. Mejia-Rodriguez, T. Risthaus, M. Malagoli, A. Marenich,
   A. Otero-de-la-Roza, J. Mullin, P. Nichols, R. Peverati, J. Pittner, Y. Zhao,
        P.-D. Fan, A. Fonari, M. J. Williamson, R. J. Harrison, J. R. Rehr,
      M. Dupuis, D. Silverstein, D. M. A. Smith, J. Nieplocha, V. Tipparaju,
    M. Krishnan, B. E. Van Kuiken, A. Vazquez-Mayagoitia, L. Jensen, M. Swart,
      Q. Wu, T. Van Voorhis, A. A. Auer, M. Nooijen, L. D. Crosby, E. Brown,
      G. Cisneros, G. I. Fann, H. Fruchtl, J. Garza, K. Hirao, R. A. Kendall,
      J. A. Nichols, K. Tsemekhman, K. Wolinski, J. Anchell, D. E. Bernholdt,
      P. Borowski, T. Clark, D. Clerc, H. Dachsel, M. J. O. Deegan, K. Dyall,
    D. Elwood, E. Glendening, M. Gutowski, A. C. Hess, J. Jaffe, B. G. Johnson,
     J. Ju, R. Kobayashi, R. Kutteh, Z. Lin, R. Littlefield, X. Long, B. Meng,
      T. Nakajima, S. Niu, L. Pollack, M. Rosing, K. Glaesemann, G. Sandrone,
      M. Stave, H. Taylor, G. Thomas, J. H. van Lenthe, A. T. Wong, Z. Zhang.

 Total times  cpu:        5.5s     wall:       12.4s
