LAMMPS data file via write_data, version 22 Aug 2018, timestep = 0

4 atoms
4 atom types
2 bonds
2 bond types
1 angles
1 angle types

-4.0000000000000000e+01 4.0000000000000000e+01 xlo xhi
-4.0000000000000000e+01 4.0000000000000000e+01 ylo yhi
-4.0000000000000000e+01 4.0000000000000000e+01 zlo zhi

Masses

1 86.81
2 67.07
3 15.04
4 29.07

Bond Coeffs # harmonic

1 200 2.68975
2 200 3.04931

Angle Coeffs # harmonic

1 200 144.187

Atoms # full

1 0 1 -7.8000000000000003e-01 1.0000000000000000e+01 0.0000000000000000e+00 0.0000000000000000e+00 0 0 0
2 0 2 3.5909999999999997e-01 0.0000000000000000e+00 0.0000000000000000e+00 0.0000000000000000e+00 0 0 0
3 0 3 1.8880000000000000e-01 0.0000000000000000e+00 2.6897486800000001e+00 3.5763057400000003e-17 0 0 0
4 0 4 2.3210000000000000e-01 1.7793842799999999e+00 -2.4659843800000001e+00 0.0000000000000000e+00 0 0 0

Velocities

1 0.0000000000000000e+00 0.0000000000000000e+00 0.0000000000000000e+00
2 0.0000000000000000e+00 0.0000000000000000e+00 0.0000000000000000e+00
3 0.0000000000000000e+00 0.0000000000000000e+00 0.0000000000000000e+00
4 0.0000000000000000e+00 0.0000000000000000e+00 0.0000000000000000e+00

Bonds

1 1 2 3
2 2 2 4

Angles

1 1 3 2 4
