ITEM: TIMESTEP
0
ITEM: NUMBER OF ATOMS
80
ITEM: BOX BOUNDS pp pp pp
-4.0000000000000000e+01 4.0000000000000000e+01
-4.0000000000000000e+01 4.0000000000000000e+01
-4.0000000000000000e+01 4.0000000000000000e+01
ITEM: ATOMS id mass type x y z 
78 67 2 -39.7606 -32.9289 -38.5958 
79 15 3 -38.5677 -30.9368 -39.9535 
80 29 4 39.2864 -33.8146 -35.8472 
60 67 2 18.0709 -15.2414 -33.552 
61 15 3 18.8192 -17.5833 -32.461 
62 29 4 15.7137 -13.6906 -34.6859 
30 67 2 27.8684 -15.3072 -37.487 
31 15 3 27.0469 -13.204 -38.9485 
32 29 4 30.2465 -16.5196 -36.0303 
15 86.8 1 -10.805 -0.25449 -37.2088 
40 15 3 -28.8016 18.875 -38.7411 
39 67 2 -31.0293 20.1598 -39.5295 
36 67 2 -28.4115 27.7147 -35.2537 
37 15 3 -27.6224 25.1594 -34.9669 
38 29 4 -28.6973 29.9993 -37.2402 
17 86.8 1 -5.49156 23.3027 -31.7598 
58 15 3 1.8091 22.1818 -39.0194 
4 86.8 1 -0.921555 31.4227 -38.5649 
9 86.8 1 29.0907 -33.235 -21.3637 
20 86.8 1 28.7539 -12.8915 -27.5041 
33 67 2 9.09742 -33.817 -10.2096 
35 29 4 6.61679 -34.2993 -11.9011 
6 86.8 1 23.8607 -12.786 -14.7544 
50 29 4 -4.69551 -0.787675 -18.2909 
48 67 2 -5.37584 1.57929 -16.5072 
49 15 3 -4.33667 3.64642 -15.1353 
3 86.8 1 -36.8171 14.2976 -19.4253 
34 15 3 11.5826 -34.6999 -9.68115 
24 67 2 2.73372 -12.2714 -3.20626 
25 15 3 5.07382 -12.3746 -4.5284 
26 29 4 0.486709 -13.9528 -2.03528 
71 29 4 1.81825 -11.2423 -4.2634 
51 67 2 16.1497 -11.0825 -4.00909 
52 15 3 18.8343 -11.2316 -3.93576 
53 29 4 13.5794 -12.6292 -3.51032 
70 15 3 -1.37928 -7.40213 -6.44892 
69 67 2 0.730328 -9.01645 -6.02669 
18 86.8 1 -27.1548 9.41929 -9.98672 
7 86.8 1 22.1578 5.48786 -5.50354 
2 86.8 1 7.29414 32.6479 -7.57523 
14 86.8 1 4.3055 -37.4315 9.39068 
1 86.8 1 -39.161 -19.1491 0.890539 
10 86.8 1 -19.8872 -4.86895 7.63172 
16 86.8 1 -8.07335 -8.75822 0.604183 
54 67 2 -16.0867 -30.8016 16.399 
56 29 4 -16.4474 -33.6371 17.4368 
55 15 3 -14.4377 -28.6766 16.3867 
66 67 2 -4.41535 -25.7301 10.722 
67 15 3 -6.19312 -23.7315 10.4389 
68 29 4 -1.77661 -26.5191 12.0111 
5 86.8 1 -0.514897 -13.8698 11.0873 
11 86.8 1 26.393 -12.3701 14.9609 
72 67 2 -17.765 7.00213 12.3528 
73 15 3 -15.2213 7.6051 11.7198 
74 29 4 -19.5763 4.84404 13.4971 
46 15 3 -20.9616 11.0674 10.8534 
45 67 2 -19.2047 11.3133 12.8751 
47 29 4 -17.1077 13.1354 14.112 
8 86.8 1 -17.9652 -21.7039 22.7922 
42 67 2 -1.18749 -27.4951 29.6473 
43 15 3 -3.64463 -27.1462 28.6103 
12 86.8 1 8.19587 -12.022 26.709 
22 15 3 -37.703 -3.17059 29.031 
63 67 2 10.5597 9.819 24.814 
65 29 4 10.8643 6.9113 23.9775 
64 15 3 11.8496 11.9336 25.8624 
19 86.8 1 -6.79422 -30.4281 34.6635 
44 29 4 0.514636 -29.3041 31.4017 
21 67 2 -38.1057 -3.11269 31.6898 
23 29 4 -39.7866 -4.24956 33.9546 
75 67 2 -1.49194 -2.96999 30.3131 
76 15 3 -3.43845 -1.12111 30.1472 
77 29 4 -0.739257 -5.65651 31.5228 
13 86.8 1 18.8545 7.20409 39.2077 
41 29 4 -33.8408 19.7765 39.377 
57 67 2 2.68142 23.1159 38.6138 
59 29 4 4.49549 22.5237 36.2462 
27 67 2 -14.0457 34.5657 35.9556 
28 15 3 -14.3124 35.0711 33.3272 
29 29 4 -14.9319 35.4259 38.7344 
ITEM: TIMESTEP
4
ITEM: NUMBER OF ATOMS
80
ITEM: BOX BOUNDS pp pp pp
-4.0000000000000000e+01 4.0000000000000000e+01
-4.0000000000000000e+01 4.0000000000000000e+01
-4.0000000000000000e+01 4.0000000000000000e+01
ITEM: ATOMS id mass type x y z 
78 67 2 -39.7597 -32.9278 -38.5984 
79 15 3 -38.5668 -30.9355 -39.9554 
80 29 4 39.2843 -33.8169 -35.8424 
60 67 2 18.0732 -15.243 -33.5506 
61 15 3 18.8208 -17.585 -32.4597 
62 29 4 15.7099 -13.687 -34.6881 
30 67 2 27.8663 -15.3057 -37.4882 
31 15 3 27.0454 -13.2024 -38.9498 
32 29 4 30.2505 -16.5224 -36.027 
15 86.8 1 -10.8049 -0.254445 -37.2091 
40 15 3 -28.7993 18.8743 -38.7402 
39 67 2 -31.0266 20.1596 -39.5284 
36 67 2 -28.4111 27.7125 -35.2515 
37 15 3 -27.6218 25.1574 -34.9653 
38 29 4 -28.6981 30.0041 -37.2431 
17 86.8 1 -5.49174 23.3023 -31.7602 
58 15 3 1.80758 22.1821 -39.0169 
4 86.8 1 -0.92146 31.4224 -38.5658 
9 86.8 1 29.0907 -33.2351 -21.3641 
20 86.8 1 28.7536 -12.8919 -27.5058 
33 67 2 9.10006 -33.8169 -10.2079 
35 29 4 6.61192 -34.2997 -11.9038 
6 86.8 1 23.8599 -12.7861 -14.754 
50 29 4 -4.69517 -0.792116 -18.2943 
48 67 2 -5.37643 1.58185 -16.5054 
49 15 3 -4.33668 3.64863 -15.1339 
3 86.8 1 -36.8172 14.298 -19.4259 
34 15 3 11.585 -34.7002 -9.68001 
24 67 2 2.7346 -12.269 -3.20904 
25 15 3 5.07555 -12.3735 -4.52922 
26 29 4 0.481982 -13.9547 -2.03267 
71 29 4 1.82169 -11.2471 -4.25943 
51 67 2 16.1529 -11.081 -4.0096 
52 15 3 18.8372 -11.2308 -3.93611 
53 29 4 13.5747 -12.6313 -3.50962 
70 15 3 -1.38079 -7.40055 -6.4496 
69 67 2 0.728963 -9.01475 -6.02762 
18 86.8 1 -27.1543 9.41933 -9.98643 
7 86.8 1 22.1573 5.48773 -5.50339 
2 86.8 1 7.29406 32.6483 -7.57532 
14 86.8 1 4.30511 -37.4311 9.39085 
1 86.8 1 -39.1609 -19.1493 0.890648 
10 86.8 1 -19.8872 -4.86807 7.63231 
16 86.8 1 -8.072 -8.75834 0.603125 
54 67 2 -16.0863 -30.7985 16.3982 
56 29 4 -16.4488 -33.6422 17.4383 
55 15 3 -14.437 -28.674 16.3863 
66 67 2 -4.41782 -25.7289 10.7207 
67 15 3 -6.19507 -23.7301 10.4381 
68 29 4 -1.77169 -26.5212 12.0131 
5 86.8 1 -0.51482 -13.8703 11.0869 
11 86.8 1 26.3929 -12.3701 14.9612 
72 67 2 -17.7627 7.00302 12.3513 
73 15 3 -15.219 7.60558 11.7188 
74 29 4 -19.5802 4.83975 13.499 
46 15 3 -20.9638 11.0668 10.8516 
45 67 2 -19.2074 11.3124 12.8738 
47 29 4 -17.1038 13.1386 14.1147 
8 86.8 1 -17.965 -21.7046 22.792 
42 67 2 -1.18963 -27.4935 29.6459 
43 15 3 -3.64682 -27.1452 28.6093 
12 86.8 1 8.19556 -12.0217 26.7095 
22 15 3 -37.7019 -3.17006 29.0286 
63 67 2 10.5597 9.82188 24.8149 
65 29 4 10.8642 6.90589 23.9757 
64 15 3 11.8501 11.936 25.8634 
19 86.8 1 -6.79351 -30.4279 34.6625 
44 29 4 0.518192 -29.307 31.405 
21 67 2 -38.1042 -3.11169 31.6873 
23 29 4 -39.7893 -4.25119 33.9593 
75 67 2 -1.49285 -2.96744 30.312 
76 15 3 -3.43964 -1.11907 30.1466 
77 29 4 -0.737055 -5.66155 31.5247 
13 86.8 1 18.8543 7.20412 39.2074 
41 29 4 -33.8463 19.7764 39.375 
57 67 2 2.67953 23.1166 38.6166 
59 29 4 4.49845 22.5236 36.2418 
27 67 2 -14.0447 34.5651 35.9528 
28 15 3 -14.3118 35.0709 33.3247 
29 29 4 -14.9328 35.4269 38.74 
ITEM: TIMESTEP
0
ITEM: NUMBER OF ATOMS
80
ITEM: BOX BOUNDS pp pp pp
-4.0000000000000000e+01 4.0000000000000000e+01
-4.0000000000000000e+01 4.0000000000000000e+01
-4.0000000000000000e+01 4.0000000000000000e+01
ITEM: ATOMS id mass type x y z 
78 67 2 -39.7597 -32.9278 -38.5984 
79 15 3 -38.5668 -30.9355 -39.9554 
80 29 4 39.2843 -33.8169 -35.8424 
60 67 2 18.0732 -15.243 -33.5506 
61 15 3 18.8208 -17.585 -32.4597 
62 29 4 15.7099 -13.687 -34.6881 
30 67 2 27.8663 -15.3057 -37.4882 
31 15 3 27.0454 -13.2024 -38.9498 
32 29 4 30.2505 -16.5224 -36.027 
15 86.8 1 -10.8049 -0.254445 -37.2091 
40 15 3 -28.7993 18.8743 -38.7402 
39 67 2 -31.0266 20.1596 -39.5284 
36 67 2 -28.4111 27.7125 -35.2515 
37 15 3 -27.6218 25.1574 -34.9653 
17 86.8 1 -5.49174 23.3023 -31.7602 
58 15 3 1.80758 22.1821 -39.0169 
38 29 4 -28.6981 30.0041 -37.2431 
4 86.8 1 -0.92146 31.4224 -38.5658 
9 86.8 1 29.0907 -33.2351 -21.3641 
20 86.8 1 28.7536 -12.8919 -27.5058 
33 67 2 9.10006 -33.8169 -10.2079 
35 29 4 6.61192 -34.2997 -11.9038 
6 86.8 1 23.8599 -12.7861 -14.754 
50 29 4 -4.69517 -0.792116 -18.2943 
48 67 2 -5.37643 1.58185 -16.5054 
49 15 3 -4.33668 3.64863 -15.1339 
3 86.8 1 -36.8172 14.298 -19.4259 
34 15 3 11.585 -34.7002 -9.68001 
24 67 2 2.7346 -12.269 -3.20904 
25 15 3 5.07555 -12.3735 -4.52922 
26 29 4 0.481982 -13.9547 -2.03267 
71 29 4 1.82169 -11.2471 -4.25943 
51 67 2 16.1529 -11.081 -4.0096 
52 15 3 18.8372 -11.2308 -3.93611 
53 29 4 13.5747 -12.6313 -3.50962 
70 15 3 -1.38079 -7.40055 -6.4496 
69 67 2 0.728963 -9.01475 -6.02762 
18 86.8 1 -27.1543 9.41933 -9.98643 
7 86.8 1 22.1573 5.48773 -5.50339 
2 86.8 1 7.29406 32.6483 -7.57532 
14 86.8 1 4.30511 -37.4311 9.39085 
1 86.8 1 -39.1609 -19.1493 0.890648 
10 86.8 1 -19.8872 -4.86807 7.63231 
16 86.8 1 -8.072 -8.75834 0.603125 
54 67 2 -16.0863 -30.7985 16.3982 
56 29 4 -16.4488 -33.6422 17.4383 
55 15 3 -14.437 -28.674 16.3863 
66 67 2 -4.41782 -25.7289 10.7207 
67 15 3 -6.19507 -23.7301 10.4381 
68 29 4 -1.77169 -26.5212 12.0131 
5 86.8 1 -0.51482 -13.8703 11.0869 
11 86.8 1 26.3929 -12.3701 14.9612 
72 67 2 -17.7627 7.00302 12.3513 
73 15 3 -15.219 7.60558 11.7188 
74 29 4 -19.5802 4.83975 13.499 
46 15 3 -20.9638 11.0668 10.8516 
45 67 2 -19.2074 11.3124 12.8738 
47 29 4 -17.1038 13.1386 14.1147 
8 86.8 1 -17.965 -21.7046 22.792 
42 67 2 -1.18963 -27.4935 29.6459 
43 15 3 -3.64682 -27.1452 28.6093 
12 86.8 1 8.19556 -12.0217 26.7095 
22 15 3 -37.7019 -3.17006 29.0286 
63 67 2 10.5597 9.82188 24.8149 
65 29 4 10.8642 6.90589 23.9757 
64 15 3 11.8501 11.936 25.8634 
19 86.8 1 -6.79351 -30.4279 34.6625 
44 29 4 0.518192 -29.307 31.405 
21 67 2 -38.1042 -3.11169 31.6873 
23 29 4 -39.7893 -4.25119 33.9593 
75 67 2 -1.49285 -2.96744 30.312 
76 15 3 -3.43964 -1.11907 30.1466 
77 29 4 -0.737055 -5.66155 31.5247 
13 86.8 1 18.8543 7.20412 39.2074 
41 29 4 -33.8463 19.7764 39.375 
57 67 2 2.67953 23.1166 38.6166 
59 29 4 4.49845 22.5236 36.2418 
27 67 2 -14.0447 34.5651 35.9528 
28 15 3 -14.3118 35.0709 33.3247 
29 29 4 -14.9328 35.4269 38.74 
ITEM: TIMESTEP
2000
ITEM: NUMBER OF ATOMS
80
ITEM: BOX BOUNDS pp pp pp
-3.4167428037007852e+01 3.4167428037007852e+01
-3.4167428037007852e+01 3.4167428037007852e+01
-3.4167428037007852e+01 3.4167428037007852e+01
ITEM: ATOMS id mass type x y z 
78 67 2 -33.9437 -28.1393 -33.1176 
80 29 4 33.3301 -29.1193 -30.0295 
61 15 3 16.3983 -15.6809 -27.3959 
62 29 4 12.9235 -11.3169 -29.8884 
60 67 2 15.5818 -13.0353 -28.6223 
30 67 2 23.6614 -13.0728 -32.0606 
31 15 3 22.7679 -10.697 -33.7121 
32 29 4 26.3416 -14.4186 -30.4396 
15 86.8 1 -9.23502 -0.217259 -31.7806 
39 67 2 -26.3903 17.3048 -33.7201 
40 15 3 -23.8977 15.8282 -32.8386 
36 67 2 -24.2836 23.6081 -29.9786 
37 15 3 -23.3711 20.7354 -29.6874 
17 86.8 1 -4.69428 19.9031 -27.1262 
58 15 3 1.23838 18.7543 -32.6108 
38 29 4 -24.5882 26.1636 -32.2144 
4 86.8 1 -0.784468 26.842 -32.9439 
9 86.8 1 24.8477 -28.3916 -18.2478 
20 86.8 1 24.5577 -11.0145 -23.4965 
50 29 4 -3.90547 -1.20967 -16.0227 
3 86.8 1 -31.451 12.2128 -16.594 
33 67 2 7.85302 -28.815 -8.61685 
35 29 4 5.08185 -29.3726 -10.5226 
34 15 3 10.6454 -29.8348 -8.03987 
70 15 3 -1.77722 -5.75232 -5.73288 
69 67 2 0.604353 -7.55324 -5.29231 
6 86.8 1 20.3833 -10.9213 -12.601 
48 67 2 -4.68681 1.4414 -14.0268 
49 15 3 -3.48448 3.75044 -12.4799 
18 86.8 1 -23.1935 8.04838 -8.52851 
2 86.8 1 6.22973 27.8941 -6.47086 
1 86.8 1 -33.4497 -16.3567 0.763112 
16 86.8 1 -6.89213 -7.48174 0.511766 
24 67 2 2.49952 -10.4018 -2.66275 
25 15 3 5.04799 -10.5236 -4.28443 
26 29 4 -0.0972833 -12.2639 -1.46607 
71 29 4 1.66182 -10.1067 -3.40721 
51 67 2 13.8711 -9.34309 -3.46311 
53 29 4 10.9994 -11.0913 -2.89803 
52 15 3 16.8914 -9.5461 -3.37718 
7 86.8 1 18.9307 4.68881 -4.7032 
54 67 2 -13.7836 -26.1884 13.9272 
14 86.8 1 3.67599 -31.9782 8.02416 
55 15 3 -11.9189 -23.8024 13.9455 
67 15 3 -5.87126 -19.7328 8.76382 
66 67 2 -3.89306 -22.0046 9.07397 
68 29 4 -0.934017 -22.8693 10.5296 
5 86.8 1 -0.439907 -11.8535 9.46956 
11 86.8 1 22.5425 -10.5632 12.784 
10 86.8 1 -16.9882 -4.16118 6.52198 
74 29 4 -17.1658 3.68919 11.7881 
72 67 2 -15.1496 6.11243 10.4899 
46 15 3 -18.439 9.2874 8.68807 
45 67 2 -16.4872 9.54215 10.9896 
73 15 3 -12.275 6.75803 9.7893 
47 29 4 -14.1402 11.5969 12.3652 
56 29 4 -14.1659 -29.3646 15.1052 
8 86.8 1 -15.3416 -18.5451 19.4629 
43 15 3 -3.80976 -22.9972 24.078 
12 86.8 1 7.00351 -10.2631 22.8166 
63 67 2 8.9449 8.51826 21.2081 
65 29 4 9.30623 5.25763 20.2807 
64 15 3 10.4172 10.8754 22.4109 
79 15 3 -32.5838 -25.8841 33.7223 
19 86.8 1 -5.80269 -25.9905 29.6088 
44 29 4 0.856118 -25.4067 27.2009 
42 67 2 -1.03594 -23.3608 25.2372 
77 29 4 -0.41926 -5.42691 27.1691 
22 15 3 -32.0222 -2.65041 24.0144 
21 67 2 -32.4399 -2.57461 27.0127 
23 29 4 33.9961 -3.85404 29.5385 
75 67 2 -1.2474 -2.41105 25.8122 
76 15 3 -3.46551 -0.356915 25.6375 
13 86.8 1 16.1013 6.15102 33.4873 
41 29 4 -29.54 16.8566 33.3895 
57 67 2 2.19172 19.8278 33.0577 
59 29 4 4.23449 19.1506 30.4136 
27 67 2 -11.9195 29.4365 30.6146 
28 15 3 -12.2491 30.025 27.6625 
29 29 4 -12.9236 30.4132 33.7227 
ITEM: TIMESTEP
4000
ITEM: NUMBER OF ATOMS
80
ITEM: BOX BOUNDS pp pp pp
-2.6047257155288971e+01 2.6047257155288971e+01
-2.6047257155288971e+01 2.6047257155288971e+01
-2.6047257155288971e+01 2.6047257155288971e+01
ITEM: ATOMS id mass type x y z 
78 67 2 -25.855 -21.4631 -25.388 
80 29 4 25.1825 -22.439 -22.3119 
61 15 3 12.8283 -12.5934 -20.5574 
62 29 4 9.36722 -8.24718 -23.0421 
60 67 2 12.0153 -9.95851 -21.7808 
30 67 2 17.903 -9.95852 -24.4874 
32 29 4 20.5723 -11.2986 -22.8716 
20 86.8 1 18.7209 -8.39744 -17.915 
15 86.8 1 -7.04002 -0.165547 -24.2282 
39 67 2 -20.0052 13.2651 -25.6594 
40 15 3 -17.5228 11.7934 -24.7808 
37 15 3 -17.6117 15.0718 -22.4339 
17 86.8 1 -3.57884 15.1723 -20.6801 
58 15 3 0.625556 14.1239 -24.1586 
36 67 2 -18.5227 17.9328 -22.7254 
38 29 4 -18.8258 20.4775 -24.9536 
29 29 4 -10.0141 23.3358 -25.7561 
4 86.8 1 -0.597855 20.4623 -25.1158 
35 29 4 3.30756 -22.4568 -8.36896 
33 67 2 6.06797 -21.9013 -6.47076 
34 15 3 8.84926 -22.918 -5.89581 
9 86.8 1 18.9424 -21.6442 -13.9117 
6 86.8 1 15.5377 -8.32592 -9.60558 
50 29 4 -2.88056 -1.45239 -12.6087 
48 67 2 -3.65906 1.18808 -10.6204 
49 15 3 -2.46124 3.48869 -9.08012 
3 86.8 1 -23.9764 9.31093 -12.6513 
18 86.8 1 -17.6805 6.13566 -6.50116 
1 86.8 1 -25.4999 -12.4697 0.581915 
16 86.8 1 -5.25209 -5.70384 0.388454 
69 67 2 0.420726 -5.60621 -4.13957 
24 67 2 2.12921 -7.81661 -1.90596 
25 15 3 4.54946 -7.91824 -3.70097 
26 29 4 -0.569193 -9.61764 -0.900226 
71 29 4 1.23436 -8.44658 -2.4649 
51 67 2 10.6559 -7.00911 -2.67748 
53 29 4 7.79554 -8.75089 -2.11442 
52 15 3 13.6646 -7.21156 -2.59303 
10 86.8 1 -12.9507 -3.17085 4.97293 
70 15 3 -1.86828 -3.71911 -4.68375 
7 86.8 1 14.431 3.57428 -3.5852 
2 86.8 1 4.74907 21.2654 -4.93318 
54 67 2 -10.5439 -19.8453 10.5448 
55 15 3 -8.68814 -17.4673 10.5657 
56 29 4 -10.924 -23.0092 11.7182 
14 86.8 1 2.80174 -24.3778 6.11746 
66 67 2 -3.08564 -16.7934 6.83836 
68 29 4 -0.138124 -17.6554 8.28786 
8 86.8 1 -11.695 -14.1388 14.8369 
67 15 3 -5.0548 -14.5291 6.52915 
5 86.8 1 -0.335292 -9.03726 7.21844 
11 86.8 1 17.185 -8.05264 9.74619 
74 29 4 -13.525 2.37133 9.23199 
72 67 2 -11.5158 4.7845 7.93912 
65 29 4 7.11079 3.37039 15.2627 
73 15 3 -8.6521 5.42611 7.24042 
46 15 3 -14.5958 6.90551 6.07293 
45 67 2 -12.6522 7.15877 8.36621 
47 29 4 -10.3131 9.20431 9.73613 
79 15 3 -24.5004 -19.2163 25.2175 
43 15 3 -3.58244 -17.3331 18.0046 
19 86.8 1 -4.42271 -19.8134 22.5706 
44 29 4 1.06646 -19.7335 21.1129 
42 67 2 -0.81837 -17.6959 19.1568 
12 86.8 1 5.33856 -7.82362 17.3948 
31 15 3 17.0135 -7.59138 25.9624 
22 15 3 -24.212 -1.95839 17.5464 
21 67 2 -24.6276 -1.8823 20.5332 
77 29 4 -0.10601 -4.72338 20.9517 
75 67 2 -0.931339 -1.71925 19.6005 
76 15 3 -3.14138 0.326538 19.4273 
13 86.8 1 12.2744 4.68921 25.5282 
23 29 4 25.5755 -3.15656 23.0493 
41 29 4 -23.1427 12.8193 25.2149 
57 67 2 1.57548 15.192 25.2794 
59 29 4 3.61077 14.5163 22.6463 
63 67 2 6.7509 6.61827 16.1865 
64 15 3 8.21795 8.96589 17.385 
27 67 2 -9.01424 22.3625 23.2426 
28 15 3 -9.34205 22.9498 20.302 
ITEM: TIMESTEP
6000
ITEM: NUMBER OF ATOMS
80
ITEM: BOX BOUNDS pp pp pp
-1.9884430769647334e+01 1.9884430769647334e+01
-1.9884430769647334e+01 1.9884430769647334e+01
-1.9884430769647334e+01 1.9884430769647334e+01
ITEM: ATOMS id mass type x y z 
78 67 2 -19.7159 -16.3961 -19.5231 
35 29 4 1.95408 -17.2092 -6.7384 
80 29 4 18.9957 -17.3717 -16.4474 
9 86.8 1 14.4606 -16.5234 -10.6213 
60 67 2 9.31023 -7.6236 -16.5875 
61 15 3 10.1233 -10.2567 -15.3616 
30 67 2 13.5313 -7.59449 -18.7402 
32 29 4 16.1991 -8.9338 -17.1223 
15 86.8 1 -5.37399 -0.12619 -18.4965 
50 29 4 -2.10189 -1.64274 -10.0228 
48 67 2 -2.88013 0.997149 -8.03426 
62 29 4 6.6625 -5.91292 -17.8494 
20 86.8 1 14.2908 -6.41175 -13.6806 
6 86.8 1 11.8591 -6.35623 -7.33163 
40 15 3 -12.6777 8.73369 -18.6528 
39 67 2 -15.1581 10.2008 -19.5416 
37 15 3 -13.2377 10.7619 -16.9304 
36 67 2 -14.15 13.6233 -17.2192 
38 29 4 -14.4539 16.1683 -19.4464 
29 29 4 -7.80699 17.9662 -19.0266 
3 86.8 1 -18.3036 7.10894 -9.65981 
17 86.8 1 -2.73214 11.5813 -15.7883 
4 86.8 1 -0.45613 15.62 -19.1755 
58 15 3 0.154431 10.6103 -17.7346 
1 86.8 1 -19.4663 -9.51981 0.444523 
33 67 2 4.71445 -16.6538 -4.84088 
26 29 4 -0.975884 -7.63923 -0.461487 
71 29 4 1.11435 -7.02775 -1.58071 
53 29 4 5.35134 -6.97223 -1.52811 
66 67 2 -2.47397 -12.838 5.14077 
67 15 3 -4.44107 -10.5726 4.83121 
14 86.8 1 2.13781 -18.6089 4.67061 
68 29 4 0.473124 -13.7017 6.58904 
5 86.8 1 -0.255948 -6.90038 5.5095 
34 15 3 7.49484 -17.671 -4.26537 
18 86.8 1 -13.4958 4.68405 -4.96212 
10 86.8 1 -9.88647 -2.41829 3.79799 
46 15 3 -11.6852 5.09506 4.08053 
72 67 2 -8.75673 3.77671 6.00183 
45 67 2 -9.74403 5.34951 6.37515 
70 15 3 -1.92234 -2.25205 -3.80851 
69 67 2 0.332772 -4.17058 -3.23601 
24 67 2 1.72996 -5.85254 -1.45596 
25 15 3 4.16756 -5.94371 -3.22903 
49 15 3 -1.6829 3.29821 -6.49529 
16 86.8 1 -4.00607 -4.35469 0.293752 
73 15 3 -5.89362 4.41821 5.30352 
51 67 2 8.21619 -5.23537 -2.08173 
52 15 3 11.224 -5.44422 -1.99778 
7 86.8 1 11.0154 2.72825 -2.7365 
2 86.8 1 3.62524 16.235 -3.76624 
54 67 2 -8.08579 -15.0294 7.97698 
56 29 4 -8.46481 -18.1931 9.14984 
79 15 3 -18.3616 -14.1499 18.7568 
8 86.8 1 -8.92704 -10.7953 11.3256 
55 15 3 -6.23397 -12.649 8.00216 
43 15 3 -3.41877 -13.031 13.3929 
19 86.8 1 -3.37506 -15.1251 17.2281 
42 67 2 -0.654081 -13.3954 14.5414 
44 29 4 1.23111 -15.4322 16.4972 
74 29 4 -10.767 1.36467 7.29416 
22 15 3 -18.2821 -1.43283 12.6282 
21 67 2 -18.6973 -1.35614 15.6146 
75 67 2 -0.69138 -1.19309 14.8854 
12 86.8 1 4.07459 -5.9719 13.2804 
77 29 4 0.135215 -4.19695 16.2352 
76 15 3 -2.9014 0.851953 14.7137 
65 29 4 5.44472 1.9301 11.4517 
63 67 2 5.08543 5.17759 12.3757 
11 86.8 1 13.1188 -6.14716 7.44095 
31 15 3 12.642 -5.22751 19.3846 
23 29 4 19.1808 -2.62949 18.1311 
13 86.8 1 9.36992 3.5798 19.4871 
47 29 4 -7.40215 7.39216 7.74356 
41 29 4 -18.2953 9.75329 19.0081 
27 67 2 -6.80812 16.9929 17.6465 
28 15 3 -7.13454 17.5812 14.7066 
64 15 3 6.55231 7.52448 13.5744 
57 67 2 1.10611 11.6755 19.3777 
59 29 4 3.14193 10.9977 16.746 
ITEM: TIMESTEP
8000
ITEM: NUMBER OF ATOMS
80
ITEM: BOX BOUNDS pp pp pp
-1.5180680457775992e+01 1.5180680457775992e+01
-1.5180680457775992e+01 1.5180680457775992e+01
-1.5180680457775992e+01 1.5180680457775992e+01
ITEM: ATOMS id mass type x y z 
78 67 2 -15.0305 -12.5287 -15.0463 
35 29 4 0.921041 -13.2047 -5.49381 
80 29 4 14.2731 -13.5035 -11.9705 
9 86.8 1 11.0399 -12.6152 -8.11076 
60 67 2 7.24605 -5.84103 -12.6228 
61 15 3 8.05931 -8.47225 -11.3929 
30 67 2 10.1946 -5.78989 -14.3534 
32 29 4 12.8607 -7.12763 -12.7317 
15 86.8 1 -4.10227 -0.0959335 -14.1223 
50 29 4 -1.5078 -1.78784 -8.04954 
48 67 2 -2.28598 0.851794 -6.06072 
62 29 4 4.59815 -4.13184 -13.8863 
20 86.8 1 10.9092 -4.89708 -10.4513 
6 86.8 1 9.05005 -4.85303 -5.59507 
40 15 3 -8.95007 6.34297 -14.0846 
39 67 2 -11.4527 7.84946 -14.8705 
37 15 3 -9.93263 7.50115 -12.6448 
36 67 2 -10.8204 10.3502 -13.0061 
29 29 4 -6.12144 13.8682 -13.8898 
3 86.8 1 -13.9737 5.42895 -7.3778 
17 86.8 1 -2.08488 8.83877 -12.0558 
4 86.8 1 -0.347798 11.9237 -14.643 
58 15 3 -0.21229 7.93412 -12.8307 
1 86.8 1 -14.8609 -7.26863 0.33986 
33 67 2 3.68162 -12.6493 -3.59676 
26 29 4 -1.29311 -6.16071 -0.125398 
71 29 4 1.09472 -5.87374 -0.86876 
53 29 4 3.50044 -5.64047 -1.0185 
66 67 2 -2.00645 -9.81872 3.84487 
67 15 3 -3.97469 -7.55353 3.54345 
14 86.8 1 1.63044 -14.2052 3.5668 
5 86.8 1 -0.195571 -5.27027 4.20447 
34 15 3 6.46167 -13.6675 -3.02104 
18 86.8 1 -10.3007 3.57619 -3.78679 
10 86.8 1 -7.54782 -1.8425 2.90244 
46 15 3 -9.46297 3.71182 2.55726 
72 67 2 -6.65037 3.0063 4.52185 
45 67 2 -7.52688 3.96923 4.85608 
70 15 3 -1.99523 -1.1468 -3.12166 
69 67 2 0.271664 -3.05522 -2.56436 
24 67 2 1.41669 -4.37726 -1.11277 
25 15 3 3.77917 -4.40138 -2.98864 
49 15 3 -1.08851 3.15374 -4.52306 
16 86.8 1 -3.05327 -3.32544 0.219882 
73 15 3 -3.78678 3.64977 3.82777 
51 67 2 6.35111 -3.89138 -1.62497 
52 15 3 9.36141 -4.07584 -1.55451 
7 86.8 1 8.40777 2.08227 -2.08844 
2 86.8 1 2.76732 12.396 -2.87573 
54 67 2 -6.21026 -11.3524 6.0168 
56 29 4 -6.58622 -14.5167 7.18966 
79 15 3 -13.6761 -10.2826 13.8257 
8 86.8 1 -6.81343 -8.24447 8.64501 
68 29 4 0.940358 -10.6855 5.29154 
55 15 3 -4.3629 -8.96777 6.04303 
43 15 3 -3.2956 -9.74604 9.8753 
19 86.8 1 -2.57517 -11.5468 13.1496 
42 67 2 -0.529196 -10.1131 11.0192 
44 29 4 1.3564 -12.1497 12.9746 
74 29 4 -8.66103 0.594326 5.81346 
22 15 3 -13.7572 -1.03314 8.87366 
21 67 2 -14.1712 -0.954754 11.8603 
75 67 2 -0.508097 -0.791924 11.2867 
12 86.8 1 3.10929 -4.55813 10.1411 
77 29 4 0.320783 -3.79599 12.6342 
76 15 3 -2.7192 1.25222 11.1183 
65 29 4 4.17371 0.830267 8.54302 
63 67 2 3.8145 4.07781 9.46706 
11 86.8 1 10.0153 -4.69264 5.68198 
31 15 3 9.30569 -3.42238 14.3641 
23 29 4 14.3 -2.2268 14.3778 
13 86.8 1 7.15286 2.73308 14.8757 
38 29 4 -11.1119 12.8746 15.1055 
47 29 4 -5.17865 6.0075 6.22003 
41 29 4 -14.5946 7.42166 14.2729 
27 67 2 -5.12356 12.8946 13.3757 
28 15 3 -5.44863 13.4853 10.4358 
57 67 2 0.746796 8.9938 14.8741 
59 29 4 2.78493 8.3097 12.2452 
64 15 3 5.28004 6.42456 10.6683 
ITEM: TIMESTEP
10000
ITEM: NUMBER OF ATOMS
80
ITEM: BOX BOUNDS pp pp pp
-1.1701957229987327e+01 1.1701957229987327e+01
-1.1701957229987327e+01 1.1701957229987327e+01
-1.1701957229987327e+01 1.1701957229987327e+01
ITEM: ATOMS id mass type x y z 
15 86.8 1 -3.1617 -0.0730706 -10.8881 
50 29 4 -1.06504 -1.91378 -6.60429 
70 15 3 -1.92007 -0.177438 -2.75069 
35 29 4 0.137321 -10.2466 -4.58571 
80 29 4 10.7711 -10.6491 -8.6378 
9 86.8 1 8.51025 -9.72504 -6.25564 
60 67 2 5.72509 -4.522 -9.68784 
61 15 3 6.54588 -7.17421 -8.44162 
30 67 2 7.72191 -4.45501 -11.1105 
32 29 4 10.4081 -5.80087 -9.46997 
62 29 4 3.05364 -2.80358 -10.9671 
20 86.8 1 8.408 -3.77817 -8.06687 
6 86.8 1 6.97038 -3.74147 -4.30908 
33 67 2 2.92067 -9.68585 -2.67281 
71 29 4 0.498679 -5.21087 -0.274411 
53 29 4 2.43291 -4.69677 -0.756646 
34 15 3 5.72524 -10.7145 -2.09391 
69 67 2 0.171609 -2.26586 -2.02567 
24 67 2 1.17343 -3.28242 -0.841033 
25 15 3 3.55997 -3.32992 -2.73205 
51 67 2 5.12225 -2.81876 -1.31257 
52 15 3 8.1472 -2.9538 -1.26609 
48 67 2 -1.85055 0.747461 -4.59888 
40 15 3 -6.09248 4.57913 -10.8996 
39 67 2 -8.696 6.08625 -11.4072 
37 15 3 -7.59794 5.05609 -9.38177 
36 67 2 -8.37486 7.958 -9.84892 
29 29 4 -4.87957 10.8418 -10.0688 
3 86.8 1 -10.7714 4.18758 -5.69213 
17 86.8 1 -1.60101 6.80449 -9.29559 
4 86.8 1 -0.267276 9.1891 -11.2933 
58 15 3 -0.523999 5.96397 -9.182 
18 86.8 1 -7.93594 2.75694 -2.91634 
49 15 3 -0.640311 3.069 -3.0484 
7 86.8 1 6.47813 1.60417 -1.60863 
2 86.8 1 2.13252 9.55736 -2.21734 
78 67 2 -11.5651 -9.66931 11.6638 
1 86.8 1 -11.4546 -5.60413 0.262762 
26 29 4 -1.62805 -5.03754 0.149491 
66 67 2 -1.66388 -7.58594 2.88328 
67 15 3 -3.64726 -5.29606 2.58283 
5 86.8 1 -0.151453 -4.06616 3.23841 
10 86.8 1 -5.81872 -1.41479 2.24216 
16 86.8 1 -2.34651 -2.56545 0.163228 
54 67 2 -4.82606 -8.62843 4.56481 
79 15 3 -10.1984 -7.40284 10.1619 
8 86.8 1 -5.24819 -6.35965 6.66185 
55 15 3 -2.96598 -6.2222 4.6026 
43 15 3 -3.22989 -7.30524 7.25587 
19 86.8 1 -1.98339 -8.90035 10.1321 
42 67 2 -0.438795 -7.68036 8.41118 
22 15 3 -10.404 -0.738158 6.06805 
21 67 2 -10.8205 -0.655327 9.08176 
75 67 2 -0.371119 -0.491737 8.62237 
14 86.8 1 1.25437 -10.9471 2.75149 
68 29 4 1.30735 -8.46573 4.33905 
44 29 4 1.46047 -9.73655 10.3824 
12 86.8 1 2.39452 -3.51188 7.82115 
77 29 4 0.469493 -3.52038 9.97898 
11 86.8 1 7.71998 -3.61662 4.38194 
31 15 3 6.82738 -2.0648 10.6361 
23 29 4 10.6772 -1.93651 11.6212 
65 29 4 3.22969 -0.00675929 6.38366 
56 29 4 -5.20318 11.5919 5.74094 
46 15 3 -7.8371 2.67899 1.40809 
72 67 2 -5.09662 2.44496 3.42612 
45 67 2 -5.88646 2.93884 3.72998 
73 15 3 -2.20567 3.09723 2.73486 
74 29 4 -7.11954 0.00699673 4.72414 
76 15 3 -2.60462 1.568 8.45946 
38 29 4 -8.61554 10.4169 11.1842 
47 29 4 -3.51441 4.99291 5.09942 
27 67 2 -3.87442 9.86163 10.2143 
28 15 3 -4.19016 10.4508 7.26222 
41 29 4 11.5276 5.72148 10.7778 
63 67 2 2.87756 3.26744 7.31761 
13 86.8 1 5.51298 2.10689 11.4641 
57 67 2 0.469801 7.02425 11.5514 
59 29 4 2.49196 6.32799 8.90404 
64 15 3 4.44391 5.59426 8.50502 
ITEM: TIMESTEP
12000
ITEM: NUMBER OF ATOMS
80
ITEM: BOX BOUNDS pp pp pp
-9.0035805771823849e+00 9.0035805771823849e+00
-9.0035805771823849e+00 9.0035805771823849e+00
-9.0035805771823849e+00 9.0035805771823849e+00
ITEM: ATOMS id mass type x y z 
15 86.8 1 -2.43235 -0.0544298 -8.37982 
50 29 4 -0.720501 -2.00457 -5.4796 
35 29 4 -0.457282 -7.95093 -3.87346 
80 29 4 8.0545 -8.42183 -6.06444 
9 86.8 1 6.5486 -7.48361 -4.8196 
60 67 2 4.54081 -3.49631 -7.40941 
61 15 3 5.37576 -6.14689 -6.15566 
30 67 2 5.80649 -3.41949 -8.59443 
32 29 4 8.4919 -4.76394 -6.94548 
62 29 4 1.86314 -1.79719 -8.71034 
20 86.8 1 6.46753 -2.91142 -6.22201 
6 86.8 1 5.35393 -2.87912 -3.30943 
33 67 2 2.32866 -7.38949 -1.95795 
71 29 4 0.0343411 -4.75034 0.284224 
53 29 4 1.58378 -3.92523 -0.855872 
34 15 3 5.1384 -8.41872 -1.38303 
69 67 2 0.101665 -1.77494 -1.53076 
24 67 2 0.941612 -2.45398 -0.592673 
25 15 3 3.30904 -2.59874 -2.50803 
51 67 2 4.25395 -1.92363 -1.06562 
52 15 3 7.28712 -1.97897 -1.04261 
23 29 4 7.87735 -1.7045 -8.52776 
70 15 3 -1.7076 0.541586 -2.32259 
48 67 2 -1.50777 0.67188 -3.49882 
40 15 3 -3.92891 3.26424 -8.32034 
39 67 2 -6.57019 4.73916 -8.7155 
37 15 3 -5.77432 3.15253 -6.93765 
36 67 2 -6.46144 6.0826 -7.41951 
29 29 4 -4.01129 8.62841 -7.14971 
3 86.8 1 -8.28702 3.22601 -4.38707 
17 86.8 1 -1.23068 5.22445 -7.15069 
4 86.8 1 -0.204045 7.06585 -8.69819 
58 15 3 -0.732246 4.37996 -6.34425 
18 86.8 1 -6.09946 2.12144 -2.23913 
49 15 3 -0.298681 2.97878 -1.91476 
7 86.8 1 4.9802 1.23279 -1.23577 
2 86.8 1 1.63958 7.35567 -1.70679 
78 67 2 -8.87775 -7.45066 8.8358 
1 86.8 1 -8.8119 -4.31314 0.203189 
26 29 4 -2.02888 -3.96014 0.25601 
66 67 2 -1.40239 -5.84726 2.13855 
67 15 3 -3.40826 -3.55033 1.89163 
5 86.8 1 -0.118797 -3.13438 2.48881 
10 86.8 1 -4.4784 -1.0819 1.73244 
16 86.8 1 -1.7973 -1.97878 0.11759 
54 67 2 -3.77927 -6.4334 3.38821 
79 15 3 -7.50812 -5.18217 7.33059 
8 86.8 1 -4.03979 -4.89517 5.12167 
55 15 3 -1.73793 -4.18275 3.62405 
43 15 3 -3.12776 -5.43525 5.2285 
19 86.8 1 -1.52417 -6.84735 7.79074 
42 67 2 -0.365035 -5.79338 6.39059 
22 15 3 -7.96267 -0.511339 3.90133 
21 67 2 -8.23063 -0.430771 6.92908 
75 67 2 -0.264543 -0.261616 6.55585 
74 29 4 -5.85394 -0.455119 3.87474 
14 86.8 1 0.962059 -8.41879 2.12052 
68 29 4 1.57335 -6.7362 3.59101 
44 29 4 1.52376 -7.85932 8.36211 
12 86.8 1 1.83946 -2.69931 6.0237 
77 29 4 0.594397 -3.28353 7.92466 
11 86.8 1 5.93983 -2.78148 3.3746 
31 15 3 4.91124 -1.02201 7.75878 
65 29 4 2.3416 -0.64361 4.68407 
56 29 4 -4.54818 8.38709 4.38046 
46 15 3 -6.55842 1.8793 0.533291 
72 67 2 -3.90976 2.02219 2.58665 
45 67 2 -4.57888 2.12528 2.8383 
73 15 3 -1.02288 2.69514 1.89506 
76 15 3 -2.50589 1.79736 6.40191 
38 29 4 -6.6755 8.49868 8.16504 
47 29 4 -2.22796 4.19802 4.22444 
27 67 2 -2.84143 7.38695 7.88499 
28 15 3 -2.51655 7.91826 4.90895 
41 29 4 8.25053 4.3864 8.07632 
63 67 2 2.27941 2.63651 5.68425 
13 86.8 1 4.24103 1.62093 8.81615 
57 67 2 0.232069 5.53139 -8.99155 
59 29 4 2.00352 4.79345 6.18416 
64 15 3 4.10913 4.84016 6.77311 
ITEM: TIMESTEP
14000
ITEM: NUMBER OF ATOMS
80
ITEM: BOX BOUNDS pp pp pp
-6.8984008091137134e+00 6.8984008091137134e+00
-6.8984008091137134e+00 6.8984008091137134e+00
-6.8984008091137134e+00 6.8984008091137134e+00
ITEM: ATOMS id mass type x y z 
15 86.8 1 -1.8638 -0.037566 -6.42349 
50 29 4 -0.424079 -2.09747 -4.62302 
35 29 4 -0.91501 -6.15787 -3.31505 
80 29 4 5.9511 -6.67567 -4.05671 
9 86.8 1 5.02952 -5.74465 -3.69844 
60 67 2 3.63048 -2.68072 -5.63169 
61 15 3 4.36109 -5.3063 -4.40451 
30 67 2 4.30923 -2.61074 -6.63138 
32 29 4 -6.81729 -3.94971 -4.9768 
62 29 4 0.979955 -0.933948 -6.88282 
20 86.8 1 4.95335 -2.23556 -4.79333 
6 86.8 1 4.11031 -2.21327 -2.53283 
33 67 2 1.86452 -5.60132 -1.40241 
71 29 4 -0.0481888 -4.24083 0.790365 
53 29 4 0.651557 -3.21022 -1.02441 
34 15 3 4.67134 -6.61684 -0.841338 
69 67 2 0.0335274 -1.38149 -1.13528 
24 67 2 0.834888 -1.81129 -0.438435 
25 15 3 3.16219 -1.8785 -2.30561 
51 67 2 3.44089 -1.27811 -0.829604 
52 15 3 6.47327 -1.37739 -0.794437 
23 29 4 5.78274 -1.50015 -5.90724 
70 15 3 -1.5203 1.18592 -1.66804 
48 67 2 -1.22938 0.609991 -2.70525 
40 15 3 -2.28219 2.23448 -6.24048 
39 67 2 -4.92268 3.69336 -6.61484 
37 15 3 -4.29956 1.68553 -5.05558 
36 67 2 -4.96134 4.6108 -5.54102 
29 29 4 -3.2927 6.85458 -4.91412 
3 86.8 1 -6.34816 2.47804 -3.3729 
17 86.8 1 -0.947868 3.98592 -5.47098 
4 86.8 1 -0.152276 5.40207 -6.67981 
58 15 3 -0.904671 3.20122 -4.17426 
18 86.8 1 -4.66384 1.6251 -1.706 
49 15 3 -0.0356381 2.86202 -1.04744 
7 86.8 1 3.8097 0.94223 -0.943438 
2 86.8 1 1.25362 5.63754 -1.30832 
78 67 2 -6.77956 -5.7179 6.63421 
1 86.8 1 -6.74853 -3.30544 0.156846 
26 29 4 -2.14235 -3.31114 0.222884 
66 67 2 -1.20179 -4.42435 1.56052 
67 15 3 -3.3311 -2.23545 1.69172 
5 86.8 1 -0.0967555 -2.41237 1.90753 
10 86.8 1 -3.43457 -0.824289 1.33969 
16 86.8 1 -1.36731 -1.52235 0.0774268 
54 67 2 -2.95636 -4.84798 2.41414 
79 15 3 -5.40532 -3.4707 5.11838 
8 86.8 1 -3.22087 -3.6393 3.98043 
55 15 3 -0.85856 -2.6605 2.71873 
43 15 3 -2.73522 -4.22313 3.31342 
19 86.8 1 -1.16495 -5.245 5.96274 
42 67 2 -0.228508 -4.34643 4.88677 
22 15 3 -6.37981 -0.0994449 2.15365 
21 67 2 -6.27174 -0.306497 5.19457 
75 67 2 -0.178389 -0.0932891 4.95188 
74 29 4 -4.68864 -0.917674 3.3134 
14 86.8 1 0.732775 -6.44526 1.63084 
68 29 4 1.75537 -5.40944 2.96012 
44 29 4 1.65759 -6.39054 6.84194 
12 86.8 1 1.40619 -2.06207 4.62146 
77 29 4 0.624007 -3.16128 6.23404 
11 86.8 1 4.55164 -2.12891 2.59067 
31 15 3 3.40061 -0.217575 5.53033 
65 29 4 1.69253 -1.11641 3.40712 
56 29 4 -3.7951 5.84017 3.53899 
46 15 3 -5.54812 1.25484 -0.151162 
72 67 2 -2.9318 1.66028 1.91963 