ITEM: TIMESTEP
0
ITEM: NUMBER OF ENTRIES
2
ITEM: BOX BOUNDS pp pp pp
-40 40
-40 40
-40 40
ITEM: ENTRIES c_1[1] c_1[2] c_1[3] c_1[4] 
2.68975 4.9298e-12 6.28e-05 0 
3.04094 0.0140321 3.35048 0 
ITEM: TIMESTEP
9
ITEM: NUMBER OF ENTRIES
2
ITEM: BOX BOUNDS pp pp pp
-40 40
-40 40
-40 40
ITEM: ENTRIES c_1[1] c_1[2] c_1[3] c_1[4] 
2.68975 4.9298e-12 6.28e-05 0 
3.01595 0.222579 13.344 0 
ITEM: TIMESTEP
15
ITEM: NUMBER OF ENTRIES
2
ITEM: BOX BOUNDS pp pp pp
-40 40
-40 40
-40 40
ITEM: ENTRIES c_1[1] c_1[2] c_1[3] c_1[4] 
2.68975 4.9298e-12 6.28e-05 0 
3.04952 8.51561e-06 -0.0825378 0 
ITEM: TIMESTEP
24
ITEM: NUMBER OF ENTRIES
2
ITEM: BOX BOUNDS pp pp pp
-40 40
-40 40
-40 40
ITEM: ENTRIES c_1[1] c_1[2] c_1[3] c_1[4] 
2.68975 4.9298e-12 6.28e-05 0 
3.05034 0.000210779 -0.410637 0 
