ITEM: TIMESTEP
0
ITEM: NUMBER OF ENTRIES
1
ITEM: BOX BOUNDS pp pp pp
-40 40
-40 40
-40 40
ITEM: ENTRIES c_2[1] c_2[2] 
1.3003e-09 144.187 
ITEM: TIMESTEP
9
ITEM: NUMBER OF ENTRIES
1
ITEM: BOX BOUNDS pp pp pp
-40 40
-40 40
-40 40
ITEM: ENTRIES c_2[1] c_2[2] 
1.58746 139.082 
ITEM: TIMESTEP
15
ITEM: NUMBER OF ENTRIES
1
ITEM: BOX BOUNDS pp pp pp
-40 40
-40 40
-40 40
ITEM: ENTRIES c_2[1] c_2[2] 
0.409681 141.594 
ITEM: TIMESTEP
24
ITEM: NUMBER OF ENTRIES
1
ITEM: BOX BOUNDS pp pp pp
-40 40
-40 40
-40 40
ITEM: ENTRIES c_2[1] c_2[2] 
0.0157139 143.679 
