ITEM: TIMESTEP
0
ITEM: NUMBER OF ENTRIES
1
ITEM: BOX BOUNDS pp pp pp
-40 40
-40 40
-40 40
ITEM: ENTRIES c_2[1] c_2[2] 
1.3003e-09 144.187 
