ITEM: TIMESTEP
0
ITEM: NUMBER OF ATOMS
4
ITEM: BOX BOUNDS pp pp pp
0.0000000000000000e+00 4.0000000000000000e+00
0.0000000000000000e+00 4.0000000000000000e+00
0.0000000000000000e+00 4.0000000000000000e+00
ITEM: ATOMS id xs ys zs fx fy fz 
1 0 0 0 -5.55112e-17 4.85723e-17 0 
2 0.5 0.5 0 0 3.81639e-17 4.51028e-17 
3 0.5 0 0.5 -1.38778e-17 3.81639e-17 -9.71445e-17 
4 0 0.5 0.5 -1.11022e-16 1.11022e-16 9.02056e-17 
