ITEM: TIMESTEP
19
ITEM: NUMBER OF ATOMS
4
ITEM: BOX BOUNDS pp pp pp
-2.5002330892714510e-02 4.0250023308927112e+00
-2.5002330892714510e-02 4.0250023308927112e+00
-2.5002330892714510e-02 4.0250023308927112e+00
ITEM: ATOMS id xs ys zs fx fy fz 
1 2.14163e-17 2.31296e-17 2.39863e-17 5.55112e-17 -2.08167e-17 5.55112e-17 
2 0.5 0.5 3.42661e-17 -5.55112e-17 -6.245e-17 -2.15106e-16 
3 0.5 3.34095e-17 0.5 0 -8.32667e-17 3.46945e-17 
4 4.02627e-17 0.5 0.5 1.66533e-16 0 -9.02056e-17 
