ITEM: TIMESTEP
0
ITEM: NUMBER OF ATOMS
80
ITEM: BOX BOUNDS pp pp pp
-4.0000000000000000e+01 4.0000000000000000e+01
-4.0000000000000000e+01 4.0000000000000000e+01
-4.0000000000000000e+01 4.0000000000000000e+01
ITEM: ATOMS id mass type x y z 
78 67 2 -39.7606 -32.9289 -38.5958 
79 15 3 -38.5677 -30.9368 -39.9535 
80 29 4 39.2864 -33.8146 -35.8472 
60 67 2 18.0709 -15.2414 -33.552 
61 15 3 18.8192 -17.5833 -32.461 
62 29 4 15.7137 -13.6906 -34.6859 
30 67 2 27.8684 -15.3072 -37.487 
31 15 3 27.0469 -13.204 -38.9485 
32 29 4 30.2465 -16.5196 -36.0303 
15 86.8 1 -10.805 -0.25449 -37.2088 
40 15 3 -28.8016 18.875 -38.7411 
39 67 2 -31.0293 20.1598 -39.5295 
36 67 2 -28.4115 27.7147 -35.2537 
37 15 3 -27.6224 25.1594 -34.9669 
38 29 4 -28.6973 29.9993 -37.2402 
17 86.8 1 -5.49156 23.3027 -31.7598 
58 15 3 1.8091 22.1818 -39.0194 
4 86.8 1 -0.921555 31.4227 -38.5649 
9 86.8 1 29.0907 -33.235 -21.3637 
20 86.8 1 28.7539 -12.8915 -27.5041 
33 67 2 9.09742 -33.817 -10.2096 
35 29 4 6.61679 -34.2993 -11.9011 
6 86.8 1 23.8607 -12.786 -14.7544 
50 29 4 -4.69551 -0.787675 -18.2909 
48 67 2 -5.37584 1.57929 -16.5072 
49 15 3 -4.33667 3.64642 -15.1353 
3 86.8 1 -36.8171 14.2976 -19.4253 
34 15 3 11.5826 -34.6999 -9.68115 
24 67 2 2.73372 -12.2714 -3.20626 
25 15 3 5.07382 -12.3746 -4.5284 
26 29 4 0.486709 -13.9528 -2.03528 
71 29 4 1.81825 -11.2423 -4.2634 
51 67 2 16.1497 -11.0825 -4.00909 
52 15 3 18.8343 -11.2316 -3.93576 
53 29 4 13.5794 -12.6292 -3.51032 
70 15 3 -1.37928 -7.40213 -6.44892 
69 67 2 0.730328 -9.01645 -6.02669 
18 86.8 1 -27.1548 9.41929 -9.98672 
7 86.8 1 22.1578 5.48786 -5.50354 
2 86.8 1 7.29414 32.6479 -7.57523 
14 86.8 1 4.3055 -37.4315 9.39068 
1 86.8 1 -39.161 -19.1491 0.890539 
10 86.8 1 -19.8872 -4.86895 7.63172 
16 86.8 1 -8.07335 -8.75822 0.604183 
54 67 2 -16.0867 -30.8016 16.399 
56 29 4 -16.4474 -33.6371 17.4368 
55 15 3 -14.4377 -28.6766 16.3867 
66 67 2 -4.41535 -25.7301 10.722 
67 15 3 -6.19312 -23.7315 10.4389 
68 29 4 -1.77661 -26.5191 12.0111 
5 86.8 1 -0.514897 -13.8698 11.0873 
11 86.8 1 26.393 -12.3701 14.9609 
72 67 2 -17.765 7.00213 12.3528 
73 15 3 -15.2213 7.6051 11.7198 
74 29 4 -19.5763 4.84404 13.4971 
46 15 3 -20.9616 11.0674 10.8534 
45 67 2 -19.2047 11.3133 12.8751 
47 29 4 -17.1077 13.1354 14.112 
8 86.8 1 -17.9652 -21.7039 22.7922 
42 67 2 -1.18749 -27.4951 29.6473 
43 15 3 -3.64463 -27.1462 28.6103 
12 86.8 1 8.19587 -12.022 26.709 
22 15 3 -37.703 -3.17059 29.031 
63 67 2 10.5597 9.819 24.814 
65 29 4 10.8643 6.9113 23.9775 
64 15 3 11.8496 11.9336 25.8624 
19 86.8 1 -6.79422 -30.4281 34.6635 
44 29 4 0.514636 -29.3041 31.4017 
21 67 2 -38.1057 -3.11269 31.6898 
23 29 4 -39.7866 -4.24956 33.9546 
75 67 2 -1.49194 -2.96999 30.3131 
76 15 3 -3.43845 -1.12111 30.1472 
77 29 4 -0.739257 -5.65651 31.5228 
13 86.8 1 18.8545 7.20409 39.2077 
41 29 4 -33.8408 19.7765 39.377 
57 67 2 2.68142 23.1159 38.6138 
59 29 4 4.49549 22.5237 36.2462 
27 67 2 -14.0457 34.5657 35.9556 
28 15 3 -14.3124 35.0711 33.3272 
29 29 4 -14.9319 35.4259 38.7344 
ITEM: TIMESTEP
4
ITEM: NUMBER OF ATOMS
80
ITEM: BOX BOUNDS pp pp pp
-4.0000000000000000e+01 4.0000000000000000e+01
-4.0000000000000000e+01 4.0000000000000000e+01
-4.0000000000000000e+01 4.0000000000000000e+01
ITEM: ATOMS id mass type x y z 
78 67 2 -39.7597 -32.9278 -38.5984 
79 15 3 -38.5668 -30.9355 -39.9554 
80 29 4 39.2843 -33.8169 -35.8424 
60 67 2 18.0732 -15.243 -33.5506 
61 15 3 18.8208 -17.585 -32.4597 
62 29 4 15.7099 -13.687 -34.6881 
30 67 2 27.8663 -15.3057 -37.4882 
31 15 3 27.0454 -13.2024 -38.9498 
32 29 4 30.2505 -16.5224 -36.027 
15 86.8 1 -10.8049 -0.254445 -37.2091 
40 15 3 -28.7993 18.8743 -38.7402 
39 67 2 -31.0266 20.1596 -39.5284 
36 67 2 -28.4111 27.7125 -35.2515 
37 15 3 -27.6218 25.1574 -34.9653 
38 29 4 -28.6981 30.0041 -37.2431 
17 86.8 1 -5.49174 23.3023 -31.7602 
58 15 3 1.80758 22.1821 -39.0169 
4 86.8 1 -0.92146 31.4224 -38.5658 
9 86.8 1 29.0907 -33.2351 -21.3641 
20 86.8 1 28.7536 -12.8919 -27.5058 
33 67 2 9.10006 -33.8169 -10.2079 
35 29 4 6.61192 -34.2997 -11.9038 
6 86.8 1 23.8599 -12.7861 -14.754 
50 29 4 -4.69517 -0.792116 -18.2943 
48 67 2 -5.37643 1.58185 -16.5054 
49 15 3 -4.33668 3.64863 -15.1339 
3 86.8 1 -36.8172 14.298 -19.4259 
34 15 3 11.585 -34.7002 -9.68001 
24 67 2 2.7346 -12.269 -3.20904 
25 15 3 5.07555 -12.3735 -4.52922 
26 29 4 0.481982 -13.9547 -2.03267 
71 29 4 1.82169 -11.2471 -4.25943 
51 67 2 16.1529 -11.081 -4.0096 
52 15 3 18.8372 -11.2308 -3.93611 
53 29 4 13.5747 -12.6313 -3.50962 
70 15 3 -1.38079 -7.40055 -6.4496 
69 67 2 0.728963 -9.01475 -6.02762 
18 86.8 1 -27.1543 9.41933 -9.98643 
7 86.8 1 22.1573 5.48773 -5.50339 
2 86.8 1 7.29406 32.6483 -7.57532 
14 86.8 1 4.30511 -37.4311 9.39085 
1 86.8 1 -39.1609 -19.1493 0.890648 
10 86.8 1 -19.8872 -4.86807 7.63231 
16 86.8 1 -8.072 -8.75834 0.603125 
54 67 2 -16.0863 -30.7985 16.3982 
56 29 4 -16.4488 -33.6422 17.4383 
55 15 3 -14.437 -28.674 16.3863 
66 67 2 -4.41782 -25.7289 10.7207 
67 15 3 -6.19507 -23.7301 10.4381 
68 29 4 -1.77169 -26.5212 12.0131 
5 86.8 1 -0.51482 -13.8703 11.0869 
11 86.8 1 26.3929 -12.3701 14.9612 
72 67 2 -17.7627 7.00302 12.3513 
73 15 3 -15.219 7.60558 11.7188 
74 29 4 -19.5802 4.83975 13.499 
46 15 3 -20.9638 11.0668 10.8516 
45 67 2 -19.2074 11.3124 12.8738 
47 29 4 -17.1038 13.1386 14.1147 
8 86.8 1 -17.965 -21.7046 22.792 
42 67 2 -1.18963 -27.4935 29.6459 
43 15 3 -3.64682 -27.1452 28.6093 
12 86.8 1 8.19556 -12.0217 26.7095 
22 15 3 -37.7019 -3.17006 29.0286 
63 67 2 10.5597 9.82188 24.8149 
65 29 4 10.8642 6.90589 23.9757 
64 15 3 11.8501 11.936 25.8634 
19 86.8 1 -6.79351 -30.4279 34.6625 
44 29 4 0.518192 -29.307 31.405 
21 67 2 -38.1042 -3.11169 31.6873 
23 29 4 -39.7893 -4.25119 33.9593 
75 67 2 -1.49285 -2.96744 30.312 
76 15 3 -3.43964 -1.11907 30.1466 
77 29 4 -0.737055 -5.66155 31.5247 
13 86.8 1 18.8543 7.20412 39.2074 
41 29 4 -33.8463 19.7764 39.375 
57 67 2 2.67953 23.1166 38.6166 
59 29 4 4.49845 22.5236 36.2418 
27 67 2 -14.0447 34.5651 35.9528 
28 15 3 -14.3118 35.0709 33.3247 
29 29 4 -14.9328 35.4269 38.74 
ITEM: TIMESTEP
0
ITEM: NUMBER OF ATOMS
80
ITEM: BOX BOUNDS pp pp pp
-4.0000000000000000e+01 4.0000000000000000e+01
-4.0000000000000000e+01 4.0000000000000000e+01
-4.0000000000000000e+01 4.0000000000000000e+01
ITEM: ATOMS id mass type x y z 
78 67 2 -39.7597 -32.9278 -38.5984 
79 15 3 -38.5668 -30.9355 -39.9554 
80 29 4 39.2843 -33.8169 -35.8424 
60 67 2 18.0732 -15.243 -33.5506 
61 15 3 18.8208 -17.585 -32.4597 
62 29 4 15.7099 -13.687 -34.6881 
30 67 2 27.8663 -15.3057 -37.4882 
31 15 3 27.0454 -13.2024 -38.9498 
32 29 4 30.2505 -16.5224 -36.027 
15 86.8 1 -10.8049 -0.254445 -37.2091 
40 15 3 -28.7993 18.8743 -38.7402 
39 67 2 -31.0266 20.1596 -39.5284 
36 67 2 -28.4111 27.7125 -35.2515 
37 15 3 -27.6218 25.1574 -34.9653 
17 86.8 1 -5.49174 23.3023 -31.7602 
58 15 3 1.80758 22.1821 -39.0169 
38 29 4 -28.6981 30.0041 -37.2431 
4 86.8 1 -0.92146 31.4224 -38.5658 
9 86.8 1 29.0907 -33.2351 -21.3641 
20 86.8 1 28.7536 -12.8919 -27.5058 
33 67 2 9.10006 -33.8169 -10.2079 
35 29 4 6.61192 -34.2997 -11.9038 
6 86.8 1 23.8599 -12.7861 -14.754 
50 29 4 -4.69517 -0.792116 -18.2943 
48 67 2 -5.37643 1.58185 -16.5054 
49 15 3 -4.33668 3.64863 -15.1339 
3 86.8 1 -36.8172 14.298 -19.4259 
34 15 3 11.585 -34.7002 -9.68001 
24 67 2 2.7346 -12.269 -3.20904 
25 15 3 5.07555 -12.3735 -4.52922 
26 29 4 0.481982 -13.9547 -2.03267 
71 29 4 1.82169 -11.2471 -4.25943 
51 67 2 16.1529 -11.081 -4.0096 
52 15 3 18.8372 -11.2308 -3.93611 
53 29 4 13.5747 -12.6313 -3.50962 
70 15 3 -1.38079 -7.40055 -6.4496 
69 67 2 0.728963 -9.01475 -6.02762 
18 86.8 1 -27.1543 9.41933 -9.98643 
7 86.8 1 22.1573 5.48773 -5.50339 
2 86.8 1 7.29406 32.6483 -7.57532 
14 86.8 1 4.30511 -37.4311 9.39085 
1 86.8 1 -39.1609 -19.1493 0.890648 
10 86.8 1 -19.8872 -4.86807 7.63231 
16 86.8 1 -8.072 -8.75834 0.603125 
54 67 2 -16.0863 -30.7985 16.3982 
56 29 4 -16.4488 -33.6422 17.4383 
55 15 3 -14.437 -28.674 16.3863 
66 67 2 -4.41782 -25.7289 10.7207 
67 15 3 -6.19507 -23.7301 10.4381 
68 29 4 -1.77169 -26.5212 12.0131 
5 86.8 1 -0.51482 -13.8703 11.0869 
11 86.8 1 26.3929 -12.3701 14.9612 
72 67 2 -17.7627 7.00302 12.3513 
73 15 3 -15.219 7.60558 11.7188 
74 29 4 -19.5802 4.83975 13.499 
46 15 3 -20.9638 11.0668 10.8516 
45 67 2 -19.2074 11.3124 12.8738 
47 29 4 -17.1038 13.1386 14.1147 
8 86.8 1 -17.965 -21.7046 22.792 
42 67 2 -1.18963 -27.4935 29.6459 
43 15 3 -3.64682 -27.1452 28.6093 
12 86.8 1 8.19556 -12.0217 26.7095 
22 15 3 -37.7019 -3.17006 29.0286 
63 67 2 10.5597 9.82188 24.8149 
65 29 4 10.8642 6.90589 23.9757 
64 15 3 11.8501 11.936 25.8634 
19 86.8 1 -6.79351 -30.4279 34.6625 
44 29 4 0.518192 -29.307 31.405 
21 67 2 -38.1042 -3.11169 31.6873 
23 29 4 -39.7893 -4.25119 33.9593 
75 67 2 -1.49285 -2.96744 30.312 
76 15 3 -3.43964 -1.11907 30.1466 
77 29 4 -0.737055 -5.66155 31.5247 
13 86.8 1 18.8543 7.20412 39.2074 
41 29 4 -33.8463 19.7764 39.375 
57 67 2 2.67953 23.1166 38.6166 
59 29 4 4.49845 22.5236 36.2418 
27 67 2 -14.0447 34.5651 35.9528 
28 15 3 -14.3118 35.0709 33.3247 
29 29 4 -14.9328 35.4269 38.74 
ITEM: TIMESTEP
2000
ITEM: NUMBER OF ATOMS
80
ITEM: BOX BOUNDS pp pp pp
-4.0037937284522840e+01 4.0037937284522840e+01
-4.0037937284522840e+01 4.0037937284522840e+01
-4.0037937284522840e+01 4.0037937284522840e+01
ITEM: ATOMS id mass type x y z 
78 67 2 -39.8305 -32.4375 -38.7238 
79 15 3 -37.885 -30.9386 -39.8286 
80 29 4 39.2537 -33.709 -36.1258 
60 67 2 18.1774 -15.2354 -33.7196 
61 15 3 19.225 -17.4595 -32.6196 
62 29 4 15.5968 -13.9688 -34.7265 
30 67 2 27.9218 -15.272 -37.0254 
31 15 3 27.0194 -13.6074 -38.9372 
32 29 4 30.3894 -16.708 -35.9851 
15 86.8 1 -11.2861 -0.24936 -36.9974 
40 15 3 -29.0071 19.0048 -38.9632 
39 67 2 -31.1755 20.3625 -39.804 
36 67 2 -28.51 27.5055 -35.5705 
37 15 3 -27.0225 25.3421 -34.9764 
17 86.8 1 -5.76487 23.2288 -31.5359 
58 15 3 2.45127 22.4666 -39.0193 
38 29 4 -28.4466 30.2551 -36.9422 
4 86.8 1 -0.710539 31.588 -38.6948 
9 86.8 1 29.0218 -33.4787 -21.2748 
20 86.8 1 28.5289 -13.0894 -27.5895 
33 67 2 9.24412 -34.0328 -10.2309 
35 29 4 6.80367 -34.5878 -11.9733 
6 86.8 1 24.1236 -12.7617 -14.6473 
50 29 4 -4.8127 -0.754515 -18.2632 
48 67 2 -5.2869 1.76547 -16.6155 
49 15 3 -4.35602 3.19742 -14.5277 
3 86.8 1 -37.043 14.2729 -19.4698 
34 15 3 11.61 -35.0285 -9.43511 
24 67 2 2.23114 -12.2171 -3.4573 
25 15 3 4.52879 -11.8418 -4.81454 
26 29 4 0.734466 -14.1006 -1.61573 
71 29 4 2.10416 -11.4336 -3.94044 
51 67 2 15.902 -11.0119 -3.86904 
52 15 3 18.557 -11.3687 -4.22128 
53 29 4 13.2245 -12.3914 -3.35621 
70 15 3 -1.10423 -7.43581 -5.65499 
69 67 2 0.856585 -9.26336 -5.58484 
18 86.8 1 -27.0988 9.63556 -9.86282 
7 86.8 1 22.5427 5.60258 -5.70288 
2 86.8 1 7.24236 33.1898 -7.58908 
14 86.8 1 4.21131 -37.9028 9.60975 
67 15 3 -5.89816 -23.7789 9.76712 
1 86.8 1 -39.1195 -19.1319 1.07964 
10 86.8 1 -19.9748 -5.15186 7.82578 
16 86.8 1 -7.89676 -8.80178 0.365693 
54 67 2 -15.9945 -30.822 16.2524 
56 29 4 -16.2365 -33.5984 17.4742 
55 15 3 -15.4357 -28.2421 16.7768 
66 67 2 -4.37997 -25.7948 10.713 
68 29 4 -1.78692 -26.5458 12.1516 
5 86.8 1 -0.528966 -14.3379 11.0548 
11 86.8 1 26.2592 -12.1244 15.3239 
72 67 2 -18.0604 6.76087 12.2792 
73 15 3 -15.4912 7.25886 11.6472 
74 29 4 -19.9371 5.23744 14.1344 
46 15 3 -19.7661 10.7903 10.1879 
45 67 2 -19.1251 11.597 12.6732 
47 29 4 -17.1548 13.2689 14.3109 
8 86.8 1 -17.6736 -22.1397 22.3558 
42 67 2 -1.02566 -27.2057 29.6063 
43 15 3 -3.22656 -26.8329 28.0928 
12 86.8 1 8.46091 -11.5723 26.866 
22 15 3 -38.2178 -2.56361 29.1304 
76 15 3 -3.69114 -1.38213 29.7788 
65 29 4 10.9556 7.0921 23.797 
63 67 2 10.8495 10.0501 24.521 
64 15 3 11.2372 11.8286 26.5143 
19 86.8 1 -6.80912 -30.4112 34.7807 
44 29 4 0.706514 -29.3062 30.9896 
21 67 2 -38.2219 -3.35972 31.7121 
23 29 4 -39.9763 -4.03217 34.1172 
75 67 2 -1.50066 -2.76725 30.5249 
77 29 4 -0.466622 -5.56197 31.1546 
13 86.8 1 18.5644 6.99238 39.005 
41 29 4 -34.0153 20.0566 39.2006 
57 67 2 2.79726 22.9641 38.4324 
59 29 4 4.75711 22.7572 36.1141 
27 67 2 -14.0906 34.3121 35.8436 
28 15 3 -14.84 34.445 33.2582 
29 29 4 -14.8733 35.0158 38.7134 
ITEM: TIMESTEP
4000
ITEM: NUMBER OF ATOMS
80
ITEM: BOX BOUNDS pp pp pp
-3.8439907270559921e+01 3.8439907270559921e+01
-3.8439907270559921e+01 3.8439907270559921e+01
-3.8439907270559921e+01 3.8439907270559921e+01
ITEM: ATOMS id mass type x y z 
78 67 2 -38.2015 -30.6569 -37.1911 
79 15 3 -35.9257 -29.7191 -38.2653 
80 29 4 37.5197 -32.2943 -34.8939 
61 15 3 18.8265 -16.6659 -31.2822 
62 29 4 14.8027 -13.5903 -33.3543 
60 67 2 17.5391 -14.6093 -32.4565 
30 67 2 26.8958 -14.5679 -35.1443 
31 15 3 25.72 -13.3393 -37.2376 
32 29 4 29.3049 -16.2551 -34.2949 
15 86.8 1 -11.2251 -0.231079 -35.3343 
40 15 3 -27.9415 18.2061 -37.5278 
39 67 2 -30.0354 19.6449 -38.4155 
36 67 2 -27.209 26.278 -34.4382 
37 15 3 -25.8295 24.3813 -33.1592 
17 86.8 1 -5.77865 22.1956 -30.0887 
58 15 3 2.62347 22.0189 -37.3756 
38 29 4 -27.3194 29.2507 -35.0659 
4 86.8 1 -0.495157 30.4128 -37.293 
9 86.8 1 27.7809 -32.3278 -20.3633 
20 86.8 1 27.1484 -12.7566 -26.6766 
50 29 4 -4.82621 -0.714962 -17.627 
3 86.8 1 -35.7274 13.6972 -18.7648 
33 67 2 9.02551 -32.8747 -9.82159 
35 29 4 6.5989 -33.4569 -11.5874 
34 15 3 11.2507 -33.9374 -8.76361 
6 86.8 1 23.2993 -12.2282 -13.929 
48 67 2 -4.91552 1.84711 -15.9755 
49 15 3 -4.46375 2.88759 -13.5248 
7 86.8 1 21.9182 5.4636 -5.62823 
18 86.8 1 -25.9056 9.4302 -9.33219 
2 86.8 1 6.89854 32.3351 -7.30119 
1 86.8 1 -37.4819 -18.3522 1.20534 
16 86.8 1 -7.30854 -8.48909 0.0643247 
24 67 2 1.7376 -11.8709 -3.26933 
25 15 3 3.76634 -10.9038 -4.75348 
26 29 4 0.929345 -13.7873 -1.05983 
71 29 4 2.21866 -11.2045 -3.80705 
70 15 3 -1.14961 -7.04874 -4.80277 
69 67 2 0.840981 -8.81969 -5.04025 
51 67 2 15.1458 -10.4767 -3.60642 
53 29 4 12.4224 -11.7286 -3.06724 
52 15 3 17.6935 -11.0033 -4.34078 
54 67 2 -15.2312 -29.4331 15.6227 
14 86.8 1 3.93077 -36.7344 9.4188 
55 15 3 -15.8823 -26.8654 16.1162 
67 15 3 -5.34974 -22.8087 8.81358 
66 67 2 -4.17058 -24.7514 10.2549 
68 29 4 -1.64727 -25.5042 11.7912 
5 86.8 1 -0.514237 -14.1939 10.5465 
11 86.8 1 25.0707 -11.4165 15.0305 
10 86.8 1 -19.2273 -5.11547 7.71589 
74 29 4 -19.4124 5.26636 14.0264 
72 67 2 -17.5598 6.09331 11.7377 
46 15 3 -18.202 10.3411 9.42402 
45 67 2 -18.2675 11.4963 11.8417 
47 29 4 -16.5726 12.871 13.9734 
73 15 3 -14.9802 6.34871 11.0023 
56 29 4 -15.4566 -32.2934 16.6858 
8 86.8 1 -16.6846 -21.6743 21.046 
43 15 3 -2.84598 -25.3351 26.601 
12 86.8 1 8.31331 -10.6999 25.9347 
65 29 4 10.5358 6.92633 22.4532 
63 67 2 10.7468 9.791 23.4796 
64 15 3 10.1137 11.4329 25.5323 
19 86.8 1 -6.49665 -29.1471 33.3991 
44 29 4 0.87823 -28.1211 29.4718 
42 67 2 -0.90793 -25.9026 28.3854 
22 15 3 -36.749 -1.98078 28.0777 
21 67 2 -36.8984 -3.41933 30.3631 
23 29 4 -38.4041 -3.72011 32.995 
76 15 3 -3.59563 -1.29632 28.2741 
75 67 2 -1.54139 -2.59093 29.4589 
77 29 4 -0.0432542 -5.24574 29.5968 
13 86.8 1 17.5493 6.53175 37.2158 
41 29 4 -32.8993 19.4631 37.4232 
57 67 2 2.81498 21.8988 36.8159 
59 29 4 4.75486 22.1001 34.4605 
27 67 2 -13.5251 32.71 34.2823 
28 15 3 -14.58 32.5325 31.8139 
29 29 4 -14.166 33.2659 37.211 
ITEM: TIMESTEP
6000
ITEM: NUMBER OF ATOMS
80
ITEM: BOX BOUNDS pp pp pp
-3.5244083398107414e+01 3.5244083398107414e+01
-3.5244083398107414e+01 3.5244083398107414e+01
-3.5244083398107414e+01 3.5244083398107414e+01
ITEM: ATOMS id mass type x y z 
78 67 2 -34.9427 -27.6773 -34.0707 
79 15 3 -32.5936 -27.145 35.2358 
80 29 4 34.1296 -29.5698 -32.1337 
61 15 3 17.6391 -15.2082 -28.4786 
62 29 4 13.3438 -12.5761 -30.6026 
60 67 2 16.1748 -13.3767 -29.7951 
30 67 2 24.7727 -13.2486 -31.8548 
31 15 3 23.3165 -12.3469 -33.9262 
32 29 4 27.0401 -15.1152 -31.0404 
15 86.8 1 -10.6293 -0.200217 -32.2546 
40 15 3 -25.6339 16.5003 -34.4741 
36 67 2 -24.6235 24.0685 -31.6851 
37 15 3 -23.8632 22.1178 -30.0186 
17 86.8 1 -5.53452 20.234 -27.449 
58 15 3 2.33147 20.6975 -34.1366 
38 29 4 -25.2586 27.0615 -31.8928 
4 86.8 1 -0.278676 27.9223 -34.3852 
9 86.8 1 25.3973 -29.8106 -18.6473 
20 86.8 1 24.6431 -11.904 -24.7873 
50 29 4 -4.65205 -0.657585 -16.3849 
3 86.8 1 -32.9028 12.5809 -17.323 
33 67 2 8.44121 -30.3666 -8.98595 
35 29 4 6.01923 -30.9401 -10.7587 
34 15 3 10.5083 -31.4721 -7.69009 
6 86.8 1 21.4161 -11.1966 -12.6185 
48 67 2 -4.35561 1.8132 -14.6191 
49 15 3 -4.42965 2.72867 -12.0842 
18 86.8 1 -23.6064 8.81 -8.40764 
7 86.8 1 20.305 5.07624 -5.28372 
2 86.8 1 6.27297 30.1119 -6.71952 
1 86.8 1 -34.2877 -16.8269 1.26611 
16 86.8 1 -6.31393 -7.82638 -0.292892 
24 67 2 1.4781 -11.1834 -2.81894 
25 15 3 3.39271 -10.4053 -4.50502 
26 29 4 0.951591 -12.9372 -0.396878 
71 29 4 1.68634 -10.444 -3.54283 
70 15 3 -1.61189 -6.18298 -4.22697 
69 67 2 0.605318 -7.67477 -4.26244 
51 67 2 13.9007 -9.50308 -3.22661 
53 29 4 11.1357 -10.6442 -2.64189 
52 15 3 16.2992 -10.1071 -4.30517 
54 67 2 -13.9486 -26.712 14.4828 
14 86.8 1 3.47341 -33.9607 8.82361 
55 15 3 -15.3723 -24.4371 14.5996 
67 15 3 -4.65869 -20.8162 7.56314 
66 67 2 -3.78792 -22.6186 9.35586 
68 29 4 -1.33856 -23.4541 10.9728 
5 86.8 1 -0.474855 -13.4451 9.57196 
11 86.8 1 22.856 -10.2615 14.0883 
10 86.8 1 -17.6603 -4.76779 7.30157 
74 29 4 -18.0393 4.91581 13.2203 
72 67 2 -16.2957 5.07233 10.7262 
46 15 3 -16.2076 9.75307 8.15558 
45 67 2 -16.6571 10.9469 10.5108 
47 29 4 -15.3169 11.9973 13.0511 
73 15 3 -13.7598 4.90416 9.85792 
56 29 4 -13.9991 -29.6932 15.118 
8 86.8 1 -15.0225 -20.3303 18.8787 
43 15 3 -2.55415 -22.7669 24.1192 
12 86.8 1 7.75736 -9.4221 23.9354 
65 29 4 9.77372 6.42429 20.0745 
63 67 2 10.1004 9.04601 21.5952 
64 15 3 8.88351 10.7663 23.28 
19 86.8 1 -5.87109 -26.667 30.5641 
44 29 4 1.02032 -25.8448 26.8779 
42 67 2 -0.81318 -23.5635 26.0106 
22 15 3 -33.5215 -1.54724 25.7103 
21 67 2 -34.091 -3.23834 27.7354 
23 29 4 -35.1903 -3.38017 30.5742 
76 15 3 -3.37256 -0.976212 25.7582 
75 67 2 -1.52148 -2.40401 27.1018 
77 29 4 0.432239 -4.73941 26.9241 
13 86.8 1 15.8315 5.83245 33.8835 
39 67 2 -27.6346 18.0372 35.0903 
41 29 4 -30.5175 18.017 34.0844 
57 67 2 2.74387 19.9975 33.7877 
59 29 4 4.47738 20.5147 31.3348 
27 67 2 -12.3545 29.7929 31.3061 
28 15 3 -13.59 29.3682 28.9586 
29 29 4 -12.8326 30.2169 34.2917 
ITEM: TIMESTEP
8000
ITEM: NUMBER OF ATOMS
80
ITEM: BOX BOUNDS pp pp pp
-3.0447602335417066e+01 3.0447602335417066e+01
-3.0447602335417066e+01 3.0447602335417066e+01
-3.0447602335417066e+01 3.0447602335417066e+01
ITEM: ATOMS id mass type x y z 
78 67 2 -30.1004 -23.5582 -29.3982 
80 29 4 29.1333 -25.5536 -27.7765 
61 15 3 15.6551 -13.1062 -24.2001 
62 29 4 11.1986 -10.899 -26.485 
60 67 2 14.0876 -11.5394 -25.7256 
31 15 3 19.8649 -10.5885 -29.1697 
32 29 4 23.6389 -13.2977 -26.2852 
30 67 2 21.4931 -11.3114 -27.1557 
20 86.8 1 21.0446 -10.506 -21.8802 
15 86.8 1 -9.45242 -0.158709 -27.7724 
40 15 3 -22.0444 13.9021 -29.7764 
37 15 3 -20.7244 18.6831 -25.6798 
17 86.8 1 -4.9976 17.366 -23.6328 
58 15 3 1.66605 18.3368 -29.2299 
36 67 2 -20.9562 20.8292 -27.2764 
38 29 4 -22.064 23.688 -27.4728 
4 86.8 1 -0.0843755 24.0995 -29.9315 
9 86.8 1 21.8799 -25.8996 -16.1254 
50 29 4 -4.23174 -0.63392 -14.4958 
6 86.8 1 18.4719 -9.66835 -10.7398 
48 67 2 -3.65439 1.67713 -12.5812 
49 15 3 -4.12985 2.65481 -10.1151 
3 86.8 1 -28.5446 10.916 -15.1215 
33 67 2 7.46696 -26.4659 -7.7185 
35 29 4 5.03662 -27.0068 -9.49456 
34 15 3 9.38758 -27.6123 -6.2348 
26 29 4 0.85484 -11.4764 0.244569 
16 86.8 1 -4.94924 -6.80211 -0.662591 
70 15 3 -1.96468 -5.00243 -3.33075 
24 67 2 0.993661 -9.82027 -2.27832 
25 15 3 2.67593 -8.96221 -4.19256 
71 29 4 1.40437 -9.23864 -2.99761 
69 67 2 0.296896 -6.42089 -3.29464 
53 29 4 9.3551 -9.14446 -2.07951 
51 67 2 12.1518 -8.11011 -2.75027 
52 15 3 14.4317 -8.66948 -4.08061 
18 86.8 1 -20.2237 7.75119 -7.11061 
7 86.8 1 17.6759 4.43313 -4.65228 
2 86.8 1 5.37671 26.4574 -5.84314 
68 29 4 -0.879639 -20.3969 9.71755 
14 86.8 1 2.86094 -29.5424 7.79754 
1 86.8 1 -29.5456 -14.5529 1.23913 
67 15 3 -3.94115 -17.7291 6.0468 
66 67 2 -3.2264 -19.4194 8.01649 
5 86.8 1 -0.415573 -12.0321 8.14033 
10 86.8 1 -15.2641 -4.09897 6.54644 
73 15 3 -11.8356 3.11938 8.22393 
72 67 2 -14.2372 3.82542 9.20772 
46 15 3 -13.6591 8.84183 6.36025 
45 67 2 -14.3449 9.85672 8.75006 
54 67 2 -12.1158 -22.7471 12.6951 
55 15 3 -13.8205 -20.6691 12.6271 
56 29 4 -11.9066 -25.7848 12.912 
8 86.8 1 -12.7332 -18.0548 15.8929 
11 86.8 1 19.6339 -8.68797 12.4497 
74 29 4 -15.8633 4.17878 11.767 
65 29 4 8.64095 5.49486 16.819 
63 67 2 8.89549 7.85327 18.7433 
64 15 3 7.52315 9.72809 20.1111 
47 29 4 -13.2998 10.6174 11.5268 
79 15 3 -27.7835 -23.2033 30.1812 
19 86.8 1 -4.9494 -22.9744 26.2889 
44 29 4 1.1174 -22.5116 23.2137 
43 15 3 -2.38375 -19.2049 20.6043 
42 67 2 -0.738643 -20.1891 22.4953 
22 15 3 -28.7394 -1.20679 21.9231 
21 67 2 -29.6801 -2.83101 23.8612 
23 29 4 -30.4276 -2.99553 26.8192 
76 15 3 -3.12693 -0.544065 22.1654 
75 67 2 -1.39227 -2.13987 23.472 
12 86.8 1 6.77003 -7.79228 20.842 
77 29 4 0.888766 -4.1424 23.129 
13 86.8 1 13.4471 4.91735 29.0413 
39 67 2 -23.95 15.5476 30.1731 
41 29 4 -26.8453 15.7031 29.2019 
57 67 2 2.51256 17.3064 29.3283 
59 29 4 3.9834 17.928 26.727 
27 67 2 -10.581 25.5842 26.9304 
28 15 3 -11.8838 25.002 24.6496 
29 29 4 -10.8919 25.9099 29.9567 
ITEM: TIMESTEP
10000
ITEM: NUMBER OF ATOMS
80
ITEM: BOX BOUNDS pp pp pp
-2.5443962856023489e+01 2.5443962856023489e+01
-2.5443962856023489e+01 2.5443962856023489e+01
-2.5443962856023489e+01 2.5443962856023489e+01
ITEM: ATOMS id mass type x y z 
78 67 2 -25.0982 -19.4117 -24.5349 
80 29 4 23.9924 -21.4263 -23.1222 
61 15 3 13.4969 -10.8728 -19.6568 
62 29 4 8.99288 -9.09065 -22.1826 
60 67 2 11.9033 -9.62849 -21.4341 
31 15 3 16.3656 -8.634 -24.3345 
32 29 4 20.0669 -11.3485 -21.3638 
30 67 2 18.0171 -9.28578 -22.3091 
20 86.8 1 17.363 -9.00808 -18.8819 
15 86.8 1 -8.07988 -0.117884 -23.1711 
40 15 3 -18.2699 11.1488 -24.8191 
17 86.8 1 -4.35384 14.4171 -19.7343 
37 15 3 -17.2383 15.2095 -21.124 
36 67 2 -17.2848 17.4466 -22.6092 
38 29 4 -18.6286 20.1496 -22.9372 
58 15 3 0.931658 15.7544 -24.0835 
4 86.8 1 0.0556974 20.0401 -25.2422 
35 29 4 3.96038 -22.8348 -8.15885 
33 67 2 6.39622 -22.3437 -6.38775 
9 86.8 1 18.2418 -21.7532 -13.527 
6 86.8 1 15.3284 -8.08399 -8.81975 
50 29 4 -3.7223 -0.646779 -12.5021 
48 67 2 -2.98863 1.50638 -10.4708 
49 15 3 -3.71347 2.62031 -8.13075 
3 86.8 1 -23.9349 9.18837 -12.817 
18 86.8 1 -16.7205 6.58161 -5.79669 
34 15 3 8.19058 -23.5435 -4.78119 
1 86.8 1 -24.6219 -12.1906 1.1523 
16 86.8 1 -3.49659 -5.6889 -1.0154 
24 67 2 0.664236 -8.41408 -1.74259 
25 15 3 2.22369 -7.6839 -3.81285 
71 29 4 1.13314 -7.83848 -2.4476 
69 67 2 -0.202052 -5.10905 -2.46749 
67 15 3 -3.2652 -14.3744 4.66351 
26 29 4 0.569195 -9.91643 0.916667 
53 29 4 7.61698 -7.65914 -1.53936 
51 67 2 10.3986 -6.66949 -2.29864 
52 15 3 12.5693 -7.18451 -3.80473 
70 15 3 -2.50533 -3.78534 -2.10143 
7 86.8 1 14.8227 3.73081 -3.93258 
46 15 3 -11.1515 7.81316 4.57979 
2 86.8 1 4.47082 22.5051 -4.93486 
54 67 2 -10.1452 -18.6267 10.7895 
55 15 3 -11.8997 -16.5996 11.0463 
56 29 4 -9.88076 -21.6706 10.702 
8 86.8 1 -10.473 -15.6099 12.8532 
68 29 4 -0.402789 -17.1882 8.37461 
14 86.8 1 2.25556 -24.799 6.66393 
66 67 2 -2.65905 -16.0993 6.63855 
5 86.8 1 -0.36121 -10.4288 6.64628 
11 86.8 1 16.3265 -7.12585 10.6277 
10 86.8 1 -12.7304 -3.29911 5.69905 
73 15 3 -9.85833 1.41435 6.5808 
72 67 2 -12.0178 2.67155 7.58669 
74 29 4 -13.5323 3.32575 10.1593 
65 29 4 7.4142 4.42359 13.5963 
45 67 2 -12.0009 8.57177 7.01621 
47 29 4 -11.1099 9.12264 9.87682 
79 15 3 -22.8144 -19.1309 24.96 
19 86.8 1 -3.98695 -19.128 21.8062 
44 29 4 1.13945 -19.0889 19.485 
43 15 3 -2.33699 -15.6723 17.0267 
42 67 2 -0.703729 -16.738 18.8801 
12 86.8 1 5.64348 -6.23171 17.5733 
22 15 3 -23.8372 -0.89329 17.9143 
21 67 2 -24.9704 -2.3953 19.8392 
76 15 3 -2.90442 -0.168897 18.4622 
75 67 2 -1.20135 -1.86594 19.6725 
77 29 4 1.26001 -3.61478 19.2307 
13 86.8 1 11.0551 4.03576 24.0665 
23 29 4 25.3951 -2.58927 22.8377 
39 67 2 -20.0694 12.9084 25.1168 
41 29 4 -22.9563 13.2201 24.183 
57 67 2 2.17025 14.5935 24.7136 
59 29 4 3.45356 15.1325 21.9932 
63 67 2 7.58138 6.58253 15.7463 
64 15 3 6.21196 8.56077 16.9535 
27 67 2 -8.69444 21.2904 22.4132 
28 15 3 -10.0441 20.635 20.18 
29 29 4 -8.9023 21.5441 25.4434 
ITEM: TIMESTEP
12000
ITEM: NUMBER OF ATOMS
80
ITEM: BOX BOUNDS pp pp pp
-2.0984512811967342e+01 2.0984512811967342e+01
-2.0984512811967342e+01 2.0984512811967342e+01
-2.0984512811967342e+01 2.0984512811967342e+01
ITEM: ATOMS id mass type x y z 
78 67 2 -20.6716 -15.8205 -20.2172 
80 29 4 19.443 -17.8375 -18.879 
9 86.8 1 15.0269 -17.9995 -11.2284 
15 86.8 1 -6.74521 -0.0859827 -19.1227 
50 29 4 -3.21403 -0.721831 -10.7121 
62 29 4 7.05857 -7.45136 -18.3319 
60 67 2 9.97742 -7.92981 -17.5878 
61 15 3 11.6189 -8.77313 -15.6286 
31 15 3 13.2872 -6.76708 -20.0693 
32 29 4 16.8323 -9.56693 -16.9993 
30 67 2 14.8196 -7.49689 -17.9807 
20 86.8 1 14.1604 -7.64085 -16.2514 
40 15 3 -14.8396 8.71259 -20.3364 
3 86.8 1 -19.772 7.64664 -10.7417 
37 15 3 -14.0242 12.1766 -16.928 
36 67 2 -14.1102 14.38 -18.4766 
38 29 4 -15.5395 17.037 -18.9127 
17 86.8 1 -3.70552 11.8363 -16.3181 
29 29 4 -7.1631 17.7447 -20.5198 
58 15 3 0.323359 13.4558 -19.4676 
4 86.8 1 0.126283 16.3559 -20.9924 
35 29 4 2.94502 -19.0397 -6.97108 
33 67 2 5.38753 -18.6273 -5.19333 
34 15 3 7.10493 -19.8612 -3.52521 
16 86.8 1 -2.17031 -4.39683 -1.30006 
69 67 2 -0.802528 -4.2935 -1.69313 
70 15 3 -3.2653 -3.58298 -0.875495 
24 67 2 0.403195 -7.00826 -1.3835 
25 15 3 1.9322 -6.49156 -3.53916 
71 29 4 1.1628 -6.61256 -1.90366 
53 29 4 6.10882 -6.3908 -1.08873 
51 67 2 8.86714 -5.40195 -1.93619 
6 86.8 1 12.4871 -6.67411 -7.14359 
52 15 3 10.9445 -5.8856 -3.57443 
18 86.8 1 -13.6326 5.48447 -4.66477 
48 67 2 -2.43444 1.33978 -8.60359 
49 15 3 -3.25734 2.58904 -6.36778 
7 86.8 1 12.2028 3.08062 -3.2463 
2 86.8 1 3.69635 18.8653 -4.12909 
67 15 3 -2.71803 -11.2593 3.59872 
54 67 2 -8.31226 -14.8939 9.13732 
55 15 3 -9.62379 -12.8808 10.3479 
56 29 4 -8.24503 -17.9067 8.79899 
8 86.8 1 -8.61946 -13.4448 10.0895 
68 29 4 0.0250837 -14.3479 7.17016 
66 67 2 -2.17688 -13.1566 5.42905 
14 86.8 1 1.7552 -20.4727 5.5968 
1 86.8 1 -20.2553 -10.0874 1.02295 
5 86.8 1 -0.335565 -8.88448 5.31055 
10 86.8 1 -10.4275 -2.50432 4.88419 
26 29 4 0.335818 -8.38111 1.34626 
11 86.8 1 13.4269 -5.79847 8.90576 
74 29 4 -11.4388 2.58804 8.6724 
46 15 3 -9.05445 6.70052 3.07362 
73 15 3 -8.18543 0.0711999 5.07985 
72 67 2 -9.97004 1.79694 6.11959 
45 67 2 -9.9516 7.2692 5.54893 
47 29 4 -9.09721 7.72841 8.4394 
79 15 3 -18.4013 -15.5571 20.3285 
19 86.8 1 -3.13878 -15.6993 17.8085 
43 15 3 -2.38543 -12.6402 13.8841 
42 67 2 -0.709432 -13.7266 15.6872 
44 29 4 1.12824 -16.0979 16.2354 
22 15 3 -19.5096 -0.593972 14.3066 
21 67 2 -20.6967 -2.01641 16.2555 
75 67 2 -0.990837 -1.61016 16.2845 
12 86.8 1 4.55868 -4.95594 14.6164 
77 29 4 1.54303 -3.23105 15.777 
23 29 4 20.8561 -2.20241 19.2715 
76 15 3 -2.73233 0.115632 15.1779 
65 29 4 6.25474 3.37047 10.8334 
13 86.8 1 9.00493 3.30987 19.7048 
63 67 2 6.38081 5.43683 13.0736 
64 15 3 5.05233 7.4585 14.2488 
39 67 2 -16.568 10.5407 20.6749 
41 29 4 -19.4457 10.9814 19.7668 
27 67 2 -7.00309 17.5393 18.4109 
28 15 3 -8.38013 16.8721 16.1965 
57 67 2 1.76062 12.2226 20.5896 
59 29 4 3.00343 12.5683 17.826 
ITEM: TIMESTEP
14000
ITEM: NUMBER OF ATOMS
80
ITEM: BOX BOUNDS pp pp pp
-1.7726604531126934e+01 1.7726604531126934e+01
-1.7726604531126934e+01 1.7726604531126934e+01
-1.7726604531126934e+01 1.7726604531126934e+01
ITEM: ATOMS id mass type x y z 
78 67 2 -17.4571 -13.2494 -17.0688 
62 29 4 5.6694 -6.26589 -15.4424 
35 29 4 2.16589 -16.2337 -6.10645 
80 29 4 16.1303 -15.2596 -15.7324 
9 86.8 1 12.6958 -15.2226 -9.56161 
60 67 2 8.62877 -6.68419 -14.8315 
61 15 3 10.4211 -7.11861 -12.8704 
32 29 4 14.4593 -8.25276 -13.7265 
30 67 2 12.2898 -6.31606 -14.6746 
20 86.8 1 11.9167 -6.57175 -14.4586 
15 86.8 1 -5.71641 -0.0651551 -16.1957 
50 29 4 -2.82291 -0.810265 -9.3918 
48 67 2 -2.035 1.21115 -7.24631 
31 15 3 10.9787 -5.15431 -16.7411 
6 86.8 1 10.3825 -5.63627 -5.91022 
40 15 3 -12.303 6.94802 -17.0057 
3 86.8 1 -16.6972 6.51932 -9.21951 
37 15 3 -11.6472 10.0033 -13.7991 
36 67 2 -11.8374 12.108 -15.4723 
38 29 4 -13.2732 14.7526 -15.9807 
29 29 4 -5.89632 15.0027 -16.9105 
17 86.8 1 -3.19267 9.98671 -13.8582 
58 15 3 -0.100119 11.9285 -16.1486 
1 86.8 1 -17.0729 -8.54999 0.901749 
33 67 2 4.6102 -15.9042 -4.31236 
67 15 3 -2.29044 -8.85021 2.99925 
66 67 2 -1.79453 -10.9902 4.55495 
14 86.8 1 1.41189 -17.2599 4.78903 
5 86.8 1 -0.369478 -7.70631 4.28261 
26 29 4 0.185576 -7.18636 1.62505 
34 15 3 6.27108 -17.178 -2.61687 
18 86.8 1 -11.3903 4.65439 -3.85359 
10 86.8 1 -8.64158 -1.80403 4.25274 
46 15 3 -7.60361 5.75366 2.01133 
73 15 3 -7.41635 -1.01553 3.86717 
72 67 2 -8.43437 1.16807 5.06779 
16 86.8 1 -1.29052 -3.40868 -1.32689 
69 67 2 -1.19393 -3.84693 -1.21037 
70 15 3 -3.7283 -3.64716 -0.39058 
24 67 2 0.253801 -5.87207 -1.12814 
25 15 3 1.77762 -5.4184 -3.29967 
71 29 4 1.16351 -5.78916 -1.61418 
53 29 4 5.02975 -5.46175 -0.766053 
49 15 3 -2.89367 2.542 -5.0705 
51 67 2 7.76554 -4.50843 -1.72465 
52 15 3 9.72865 -4.94417 -3.51291 
7 86.8 1 10.2487 2.59178 -2.72241 
45 67 2 -8.47379 6.22545 4.51702 
2 86.8 1 3.16318 16.1692 -3.54694 
54 67 2 -6.96273 -12.1198 7.91318 
55 15 3 -7.85775 -10.2283 9.51214 
56 29 4 -7.06242 -15.1431 7.45104 
8 86.8 1 -7.3137 -11.8487 8.19194 
79 15 3 -15.1926 -12.9803 16.9514 
68 29 4 0.310009 -12.3535 6.29282 
19 86.8 1 -2.50962 -13.1706 14.8715 
43 15 3 -2.45945 -10.4877 11.6191 
42 67 2 -0.752724 -11.5867 13.3869 
44 29 4 1.10634 -13.9508 13.8996 
74 29 4 -9.92248 2.16632 7.53575 
22 15 3 -16.3749 -0.371516 11.6429 
21 67 2 -17.5447 -1.74846 13.6363 
75 67 2 -0.787994 -1.43481 13.8128 
12 86.8 1 3.68347 -4.06414 12.4421 
77 29 4 1.76803 -2.99282 13.2197 
76 15 3 -2.58966 0.286076 12.7958 
65 29 4 5.36808 2.55195 8.86153 
63 67 2 5.49639 4.58597 11.1321 
11 86.8 1 11.3347 -4.86163 7.59917 
23 29 4 17.5362 -1.90047 16.6611 