ITEM: TIMESTEP
0
ITEM: NUMBER OF ENTRIES
2
ITEM: BOX BOUNDS pp pp pp
-10 10
-10 10
-10 10
ITEM: ENTRIES c_1 
1000 
400 
ITEM: TIMESTEP
1
ITEM: NUMBER OF ENTRIES
2
ITEM: BOX BOUNDS pp pp pp
-10 10
-10 10
-10 10
ITEM: ENTRIES c_1 
1000 
400 
ITEM: TIMESTEP
2
ITEM: NUMBER OF ENTRIES
2
ITEM: BOX BOUNDS pp pp pp
-10 10
-10 10
-10 10
ITEM: ENTRIES c_1 
1000 
400 
ITEM: TIMESTEP
3
ITEM: NUMBER OF ENTRIES
2
ITEM: BOX BOUNDS pp pp pp
-10 10
-10 10
-10 10
ITEM: ENTRIES c_1 
1000 
400 
ITEM: TIMESTEP
4
ITEM: NUMBER OF ENTRIES
2
ITEM: BOX BOUNDS pp pp pp
-10 10
-10 10
-10 10
ITEM: ENTRIES c_1 
1000 
400 
