ITEM: TIMESTEP
0
ITEM: NUMBER OF ENTRIES
2
ITEM: BOX BOUNDS pp pp pp
-10 10
-10 10
-10 10
ITEM: ENTRIES c_2[1] c_2[2] c_2[3] 
1 500 1000 
2 200 400 
