LAMMPS (22 Aug 2018)
##
dimension 3
boundary p p p
atom_style full
units metal
kspace_style pppm/cg 1.0e-4
kspace_modify pressure/scalar no
bond_style harmonic
angle_style harmonic

neighbor 2.0 bin
neigh_modify delay 0 every 1 check yes page 500000 one 50000

region box1 block -40.0 40.0 -40.0 40.0 -40.0 40.0
create_box 4 box1 bond/types 2 extra/bond/per/atom 2 angle/types 1 extra/angle/per/atom 1 extra/special/per/atom 10
Created orthogonal box = (-40 -40 -40) to (40 40 40)
  1 by 1 by 1 MPI processor grid

molecule cat_ion cation_mol.txt
Read molecule cat_ion:
  3 atoms with max type 4
  2 bonds with max type 2
  1 angles with max type 1
  0 dihedrals with max type 0
  0 impropers with max type 0

mass    1  86.81 #anion
mass    2  67.07 #ring
mass    3  15.04 #methyl
mass    4  29.07 #ethyl

create_atoms 1 random 40 1340 box1                     #at least 40
Created 40 atoms
  Time spent = 0.00140691 secs
create_atoms 0 random 40 2345 box1 mol cat_ion 1234    #at least 40
Created 120 atoms
  Time spent = 8.60691e-05 secs
#create_atoms 1 single  10.0 0.0 0.0
#create_atoms 0 single 0.0 0.0 0.0 mol cat_ion 1234
group anion type 1
40 atoms in group anion
group ring type 2
40 atoms in group ring
group methyl type 3
40 atoms in group methyl
group ethyl type 4
40 atoms in group ethyl

bond_coeff 1 207.729 2.689748837
bond_coeff 2 207.729 3.04931147
angle_coeff 1 207.729 144.1868904


## -- INTERATOMIC POTENTIALS -- #
pair_style lj/cut/coul/long 18.0
pair_modify mix geometric
#pair_style nm/cut/coul/long 18.0
################### properties to change
## values from easy begin

pair_coeff 1 1 0.03358 4.51
pair_coeff 2 2 0.026533 4.38
pair_coeff 3 3 0.0037311 3.41
pair_coeff 4 4 0.012852 4.38

#create_bonds single/bond 1 2 3
#create_bonds single/bond 2 2 4
#create_bonds single/angle 1 3 2 4

set type 1 charge -0.78
  40 settings made for charge
#set type 2 charge  0.408675
#set type 3 charge  0.317505
#set type 4 charge  0.273820

########################################

write_data solid.data pair ij
PPPM initialization ...
  using 12-bit tables for long-range coulomb (../kspace.cpp:321)
  G vector (1/distance) = 0.103821
  grid = 10 10 10
  stencil order = 5
  estimated absolute RMS force accuracy = 0.00106761
  estimated relative force accuracy = 7.41413e-05
  using double precision FFTs
  3d grid and FFT values/proc = 3375 1000
Neighbor list info ...
  update every 1 steps, delay 0 steps, check yes
  max neighbors/atom: 50000, page size: 500000
  master list distance cutoff = 20
  ghost atom cutoff = 20
  binsize = 10, bins = 8 8 8
  1 neighbor lists, perpetual/occasional/extra = 1 0 0
  (1) pair lj/cut/coul/long, perpetual
      attributes: half, newton on
      pair build: half/bin/newton
      stencil: half/bin/3d/newton
      bin: standard

thermo_style	custom step temp pe ke ebond press density

##################################
variable    T equal 300
variable    V equal vol
variable    dt equal 0.001  # default
variable    p equal 400     # correlation length
variable    s equal 5       # sample interval
variable    d equal $p*$s   # dump interval
variable    d equal 400*$s   
variable    d equal 400*5   

# convert from LAMMPS real units to SI

variable    kB equal 1.3806504e-23    # [J/K/** Boltzmann
variable    bar2Pa equal 100000.0
variable    A2m equal 1.0e-10
variable    ps2s equal 1.0e-12
variable    convert equal ${bar2Pa}*${bar2Pa}*${ps2s}*${A2m}*${A2m}*${A2m}
variable    convert equal 100000*${bar2Pa}*${ps2s}*${A2m}*${A2m}*${A2m}
variable    convert equal 100000*100000*${ps2s}*${A2m}*${A2m}*${A2m}
variable    convert equal 100000*100000*1e-12*${A2m}*${A2m}*${A2m}
variable    convert equal 100000*100000*1e-12*1e-10*${A2m}*${A2m}
variable    convert equal 100000*100000*1e-12*1e-10*1e-10*${A2m}
variable    convert equal 100000*100000*1e-12*1e-10*1e-10*1e-10
timestep    ${dt}
timestep    0.001
variable    tdamp equal ${dt}*10.
variable    tdamp equal 0.001*10.
variable    pdamp equal ${dt}*100.
variable    pdamp equal 0.001*100.
thermo      $d
thermo      2000

variable    ILdens equal density
variable    ILstep equal step
variable    ILtime equal time*1.0e-12 #from ps to s
variable    ILtemp equal temp
variable    ILpe equal pe
variable    ILke equal ke
variable    ILpr equal press

##################################
fix         333 all print 2000 "${ILstep} ${ILtime} ${ILdens} ${ILtemp} ${ILpr} ${ILpe} ${ILke}" file density.dat screen no
dump        1 all dcd $d minim.dcd
dump        1 all dcd 2000 minim.dcd
dump        2 all custom $d dump.atom id mass type x y z
dump        2 all custom 2000 dump.atom id mass type x y z

##################################
##################################
#  Minimize initial
##################################

velocity     all create $T 502844619  mom yes rot yes dist gaussian
velocity     all create 300 502844619  mom yes rot yes dist gaussian
minimize 1.e-4 1.0e-6 1000 10000
PPPM initialization ...
  using 12-bit tables for long-range coulomb (../kspace.cpp:321)
  G vector (1/distance) = 0.103821
  grid = 10 10 10
  stencil order = 5
  estimated absolute RMS force accuracy = 0.00106761
  estimated relative force accuracy = 7.41413e-05
  using double precision FFTs
  3d grid and FFT values/proc = 3375 1000
  PPPM/cg optimization cutoff: 1e-05
  Total charged atoms: 100.0%
  Min/max charged atoms/proc: 100.0% 100.0%
Per MPI rank memory allocation (min/avg/max) = 11.73 | 11.73 | 11.73 Mbytes
Step Temp PotEng KinEng E_bond Press Density 
       0          300    8400890.1    6.1657089   0.58297596 1.0516079e+08  0.025685164 
     382          300   -53.273597    6.1657089 0.0029246214   -19.643204  0.025685164 
Loop time of 0.363615 on 1 procs for 382 steps with 160 atoms

68.3% CPU use with 1 MPI tasks x no OpenMP threads

Minimization stats:
  Stopping criterion = energy tolerance
  Energy initial, next-to-last, final = 
         8400890.10824     -53.2686211541     -53.2735974251
  Force two-norm initial, final = 1.48053e+08 2.47445
  Force max component initial, final = 6.53831e+07 1.10191
  Final line search alpha, max atom move = 0.115668 0.127455
  Iterations, force evaluations = 382 702

MPI task timing breakdown:
Section |  min time  |  avg time  |  max time  |%varavg| %total
---------------------------------------------------------------
Pair    | 0.046462   | 0.046462   | 0.046462   |   0.0 | 12.78
Bond    | 0.016405   | 0.016405   | 0.016405   |   0.0 |  4.51
Kspace  | 0.29434    | 0.29434    | 0.29434    |   0.0 | 80.95
Neigh   | 0.0014551  | 0.0014551  | 0.0014551  |   0.0 |  0.40
Comm    | 0.0017254  | 0.0017254  | 0.0017254  |   0.0 |  0.47
Output  | 0          | 0          | 0          |   0.0 |  0.00
Modify  | 0          | 0          | 0          |   0.0 |  0.00
Other   |            | 0.003229   |            |       |  0.89

Nlocal:    160 ave 160 max 160 min
Histogram: 1 0 0 0 0 0 0 0 0 0
Nghost:    350 ave 350 max 350 min
Histogram: 1 0 0 0 0 0 0 0 0 0
Neighs:    931 ave 931 max 931 min
Histogram: 1 0 0 0 0 0 0 0 0 0

Total # of neighbors = 931
Ave neighs/atom = 5.81875
Ave special neighs/atom = 1.5
Neighbor list builds = 16
Dangerous builds = 0

reset_timestep 0
fix 1 all npt temp $T $T ${tdamp} iso 1.0 1.0 ${pdamp}
fix 1 all npt temp 300 $T ${tdamp} iso 1.0 1.0 ${pdamp}
fix 1 all npt temp 300 300 ${tdamp} iso 1.0 1.0 ${pdamp}
fix 1 all npt temp 300 300 0.01 iso 1.0 1.0 ${pdamp}
fix 1 all npt temp 300 300 0.01 iso 1.0 1.0 0.1
run             200000
PPPM initialization ...
  using 12-bit tables for long-range coulomb (../kspace.cpp:321)
  G vector (1/distance) = 0.103821
  grid = 10 10 10
  stencil order = 5
  estimated absolute RMS force accuracy = 0.00106761
  estimated relative force accuracy = 7.41413e-05
  using double precision FFTs
  3d grid and FFT values/proc = 3375 1000
Per MPI rank memory allocation (min/avg/max) = 10.6 | 10.6 | 10.6 Mbytes
Step Temp PotEng KinEng E_bond Press Density 
       0          300   -53.273597    6.1657089 0.0029246214   -19.643204  0.025685164 
    2000    284.69758   -108.51811     5.851208  0.075583247   -5075.5906   0.60161796 
    4000    315.33499   -121.77769    6.4808793 0.0079855957    1072.7851    1.0046204 
    6000    294.78063    -125.6526    6.0584385 0.0070323298   -3287.7602    1.1684277 
    8000     303.2192   -125.72056    6.2318712  0.080664006   -10935.087    1.1580617 
   10000     325.2436      -124.28    6.6845245  0.073546349   -10607.653    1.1275228 
   12000    317.50417    -125.6121     6.525461   0.12770129   -13553.662    1.1632661 
   14000    285.23771   -124.07177     5.862309  0.083609098   -10461.384    1.1408961 
   16000    297.53529   -127.09375    6.1150534 0.0033715157   -39.152716    1.1835086 
   18000    311.24632   -127.02823    6.3968474  0.040204211    5420.5047    1.1873961 
   20000     301.1103   -125.97754    6.1885281  0.091322173    9363.9064    1.1770006 
   22000    312.08787   -126.95008    6.4141432   0.19063575    13374.075    1.1617065 
   24000    297.07506   -127.79494    6.1055945   0.10652287    9879.7559    1.1940034 
   26000     267.9258     -126.976    5.5065083  0.083602428   -11535.269    1.2009308 
   28000    292.48228   -126.33814     6.011202   0.18259226   -16353.382     1.183023 
   30000    272.51992    -126.8085    5.6009283   0.18389555    -16318.59    1.1840315 
   32000    298.73335   -127.18886    6.1396762  0.020497789     -5805.66    1.2118991 
   34000    277.44169   -127.64457    5.7020823  0.060179308    7302.8076    1.2012058 
   36000    297.67382   -126.69542    6.1179004   0.11228839    10024.342    1.1794032 
   38000    306.43569   -127.18747    6.2979776   0.13908159    12170.637    1.1978497 
   40000    314.81867   -126.99052    6.4702676  0.097920342    9428.9844    1.1795028 
   42000    341.02165   -127.71464    7.0088008 0.0041517961    521.49531    1.2001263 
   44000    308.63067   -127.93677    6.3430897   0.10626643   -12831.878    1.2095548 
   46000     281.9165   -128.36277    5.7940503   0.31288119   -22113.656     1.219538 
   48000    291.90203   -127.68727    5.9992765  0.050677869   -8435.4725    1.2264378 
   50000    321.67526   -128.11498    6.6111867  0.021462751    4394.2594     1.234784 
   52000    267.35471   -126.46792     5.494771   0.25840879    17026.072    1.1922084 
   54000    316.20902   -126.32497    6.4988425   0.34137762    19226.485    1.1716736 
   56000    305.42276   -127.62776    6.2771594   0.25090424    17910.369    1.2289049 
   58000    316.78913   -127.30225    6.5107652  0.011623091    2592.0124     1.202104 
   60000    322.75992   -127.85205     6.633479  0.008712425   -3817.0813     1.209919 
   62000    345.73441   -126.80236    7.1056591   0.30101109   -20247.295    1.1920301 
   64000    294.43098   -126.91815    6.0512523   0.12094165   -13397.579    1.1826727 
   66000    285.29551    -126.7835    5.8634968  0.046772021   -9224.0104    1.1658056 
   68000    347.57185   -127.01904    7.1434228 0.0025171661   -803.81316    1.1753524 
   70000    307.56709   -128.44954    6.3212306   0.14171553     12617.46    1.2207504 
   72000    297.75238   -128.02321    6.1195149   0.10791014    10351.215    1.1916645 
   74000    280.49694    -127.1612     5.764875  0.015294715    3434.7607    1.2139374 
   76000    322.58278   -127.47269    6.6298384  0.030167851   -7294.2721    1.1879434 
   78000    291.04774    -127.5911    5.9817187   0.27680281   -19811.101    1.1797405 
   80000     322.9786   -127.24346    6.6379734   0.17631014   -15835.403     1.188297 
   82000    286.06543   -127.83056    5.8793206   0.04009563    6749.0187    1.2101575 
   84000    272.71164   -126.36708    5.6048685   0.10698016    9548.4512     1.141509 
   86000    283.49747    -127.0095    5.8265429    0.1469302     12177.09     1.167546 
   88000    287.98978   -127.66314    5.9188706  0.079893261    9010.5651    1.1978015 
   90000    282.33056   -127.70242    5.8025601  0.010647875     2577.129      1.21875 
   92000    303.34438   -128.09365    6.2344439  0.016662195   -5673.3497    1.2163335 
   94000    287.30387   -127.40225    5.9047734   0.12073465   -13527.795    1.2041394 
   96000     312.5615   -128.81274    6.4238775  0.027475024   -6581.1781    1.2486909 
   98000    301.74215   -127.20072    6.2015142  0.015830054    3370.9312    1.2116036 
  100000    275.65089   -128.41665    5.6652773  0.056641406    6321.2074    1.2063919 
  102000    288.99497   -127.39894    5.9395296    0.2340438    17668.269    1.2383088 
  104000    294.50689   -126.73051    6.0528125  0.026915486    4244.8836    1.1909995 
  106000     326.0423    -127.5813    6.7009397   0.02032092   -5195.2171    1.2124551 
  108000    321.49506   -127.16736    6.6074831  0.041903029   -8339.2957    1.2100473 
  110000    305.32213   -127.47306    6.2750912    0.1017516   -12816.642    1.1940655 
  112000    312.85564   -127.10626    6.4299226 0.0025854792   -1560.1024    1.1777957 
  114000    304.31828    -129.0529    6.2544599   0.18364549     13846.59    1.2094168 
  116000    292.18605   -127.31029    6.0051137   0.16128374    13485.427    1.2049312 
  118000    331.79766   -127.75162     6.819226 0.0061672918    1597.0036     1.226653 
  120000    335.74231   -127.10422    6.9002979  0.048274976    -8690.627    1.1882441 
  122000    295.00673    -128.1467    6.0630855   0.11130312   -13276.744    1.1980818 
  124000    322.95687   -127.64446    6.6375268  0.051969866   -9151.5822    1.1970389 
  126000    287.93094   -127.22483    5.9176612  0.058327261    7380.7947    1.1949163 
  128000     302.5406   -125.89869    6.2179243   0.11040234    10413.006    1.1850184 
  130000    281.76313   -127.75706    5.7908982   0.50467937    25152.986    1.2345828 
  132000    310.32716   -128.03039    6.3779565   0.15567437    14776.654    1.2500533 
  134000    311.69237   -128.28486    6.4060148  0.013293964    2348.0299    1.2059471 
  136000    306.22686   -127.68685    6.2936855  0.012393054    -4427.015    1.2166826 
  138000    286.13252   -128.19603    5.8806994  0.050411151   -9206.1094    1.2356096 
  140000    265.63499    -126.8425    5.4594268  0.070829879   -11022.478    1.1918568 
  142000    291.34105   -127.98684     5.987747 0.0055707797   -3392.5328    1.2035257 
  144000    327.65812   -127.43958    6.7341487  0.093673892    9042.3364     1.190339 
  146000    289.62904   -128.08559    5.9525612   0.17789961    14245.053    1.2207305 
  148000    311.16463   -127.32039    6.3951685    0.2672413    17033.838    1.1988202 
  150000    285.84963   -128.07389    5.8748854 0.0068649188    -3588.332    1.2144853 
  152000    292.29942   -127.45326    6.0074439   0.13514021   -14380.579    1.1858003 
  154000    291.12777   -127.89534    5.9833635   0.31729629   -21735.456    1.1945041 
  156000    276.14497   -126.96641    5.6754316   0.11058151   -12961.922    1.1721384 
  158000    269.74892   -127.91653    5.5439778  0.041732846    5391.7331    1.1959445 
  160000      297.853    -127.4069    6.1215829   0.18367756    13620.006    1.1855205 
  162000    273.55943   -127.40929    5.6222927   0.23586021    16971.127    1.2126936 
  164000    286.80781    -127.5983    5.8945783  0.052796237    6531.4696      1.19581 
  166000    324.51548    -127.0281      6.66956 0.0047192465   -3035.4191    1.1570174 
  168000    302.31335   -126.34739    6.2132536   0.24238025   -18595.281    1.1859788 
  170000    312.43992   -126.65639    6.4213786   0.20925787   -17522.767    1.1824837 
  172000    291.35994   -125.37478    5.9881353   0.18280132   -16614.611    1.1424135 
  174000    302.50386   -126.96363    6.2171693  0.043170979   -7942.4127    1.1793999 
  176000    295.30562   -126.61301    6.0692284  0.013441536    2530.8826    1.1669805 
  178000    319.12896   -126.69973    6.5588542   0.10054268    10455.754      1.19074 
  180000    311.94626   -126.74393    6.4112329   0.21717199    15513.823    1.1900546 
  182000    319.84037   -126.13357    6.5734755  0.069683424    8478.3421    1.1834087 
  184000    310.09557   -126.57343    6.3731968  0.018976137    3993.3713    1.1853845 
  186000    324.84758   -127.25519    6.6763853  0.014247832   -4820.2265    1.1993599 
  188000    305.21988   -127.07872    6.2729898  0.056335414   -8992.4831    1.2002298 
  190000    319.07188   -127.07528    6.5576811   0.10333701   -12119.703    1.1995995 
  192000    302.34159   -127.16597     6.213834  0.096138576   -12294.468    1.1939361 
  194000    293.14796   -127.79039    6.0248833  0.047577819    5915.5762    1.1804493 
  196000    309.37308   -127.27856    6.3583478   0.14453461     12379.03    1.1978666 
  198000    253.52174   -128.09417    5.2104708   0.15657113    12626.296    1.1999479 
  200000    330.67544   -127.64868    6.7961617  0.013934036    3234.5152    1.2090039 
Loop time of 295.837 on 1 procs for 200000 steps with 160 atoms

Performance: 58.411 ns/day, 0.411 hours/ns, 676.047 timesteps/s
98.7% CPU use with 1 MPI tasks x no OpenMP threads

MPI task timing breakdown:
Section |  min time  |  avg time  |  max time  |%varavg| %total
---------------------------------------------------------------
Pair    | 173.51     | 173.51     | 173.51     |   0.0 | 58.65
Bond    | 1.4116     | 1.4116     | 1.4116     |   0.0 |  0.48
Kspace  | 64.144     | 64.144     | 64.144     |   0.0 | 21.68
Neigh   | 3.3139     | 3.3139     | 3.3139     |   0.0 |  1.12
Comm    | 3.5683     | 3.5683     | 3.5683     |   0.0 |  1.21
Output  | 0.034668   | 0.034668   | 0.034668   |   0.0 |  0.01
Modify  | 48.956     | 48.956     | 48.956     |   0.0 | 16.55
Other   |            | 0.8981     |            |       |  0.30

Nlocal:    160 ave 160 max 160 min
Histogram: 1 0 0 0 0 0 0 0 0 0
Nghost:    3345 ave 3345 max 3345 min
Histogram: 1 0 0 0 0 0 0 0 0 0
Neighs:    39374 ave 39374 max 39374 min
Histogram: 1 0 0 0 0 0 0 0 0 0

Total # of neighbors = 39374
Ave neighs/atom = 246.088
Ave special neighs/atom = 1.5
Neighbor list builds = 2758
Dangerous builds = 0
unfix 1
unfix 333
fix 1 all nvt temp $T $T ${tdamp}
fix 1 all nvt temp 300 $T ${tdamp}
fix 1 all nvt temp 300 300 ${tdamp}
fix 1 all nvt temp 300 300 0.01

reset_timestep 0
variable     pxy equal pxy
variable     pxz equal pxz
variable     pyz equal pyz
fix          SS all ave/correlate $s $p $d              v_pxy v_pxz v_pyz type auto file S0St.dat ave running
fix          SS all ave/correlate 5 $p $d              v_pxy v_pxz v_pyz type auto file S0St.dat ave running
fix          SS all ave/correlate 5 400 $d              v_pxy v_pxz v_pyz type auto file S0St.dat ave running
fix          SS all ave/correlate 5 400 2000              v_pxy v_pxz v_pyz type auto file S0St.dat ave running
variable     scale equal ${convert}/(${kB}*$T)*$V*$s*${dt}
variable     scale equal 1e-32/(${kB}*$T)*$V*$s*${dt}
variable     scale equal 1e-32/(1.3806504e-23*$T)*$V*$s*${dt}
variable     scale equal 1e-32/(1.3806504e-23*300)*$V*$s*${dt}
variable     scale equal 1e-32/(1.3806504e-23*300)*10877.3878110823*$s*${dt}
variable     scale equal 1e-32/(1.3806504e-23*300)*10877.3878110823*5*${dt}
variable     scale equal 1e-32/(1.3806504e-23*300)*10877.3878110823*5*0.001
variable     v11 equal trap(f_SS[3])*${scale}
variable     v11 equal trap(f_SS[3])*1.31307532197413e-10
variable     v22 equal trap(f_SS[4])*${scale}
variable     v22 equal trap(f_SS[4])*1.31307532197413e-10
variable     v33 equal trap(f_SS[5])*${scale}
variable     v33 equal trap(f_SS[5])*1.31307532197413e-10
variable     v equal (v_v11+v_v22+v_v33)/3.0
fix          333 all print $d "${ILstep} ${ILtime} ${ILdens} ${ILtemp} ${ILpr} ${ILpe} ${v}" file visco.dat screen no
fix          333 all print 2000 "${ILstep} ${ILtime} ${ILdens} ${ILtemp} ${ILpr} ${ILpe} ${v}" file visco.dat screen no
thermo_style custom step temp pe press v_pxy v_pxz v_pyz v_v11 v_v22 v_v33
run          8000000
PPPM initialization ...
  using 12-bit tables for long-range coulomb (../kspace.cpp:321)
  G vector (1/distance) = 0.134806
  grid = 5 5 5
  stencil order = 5
  estimated absolute RMS force accuracy = 0.000667309
  estimated relative force accuracy = 4.6342e-05
  using double precision FFTs
  3d grid and FFT values/proc = 1000 125
Per MPI rank memory allocation (min/avg/max) = 10.64 | 10.64 | 10.64 Mbytes
Step Temp PotEng Press v_pxy v_pxz v_pyz v_v11 v_v22 v_v33 
       0    330.67544   -127.52081    3292.4746   -350.52893   -52.214326   -220.95415 8.0669133e-06 1.7899422e-07 3.2052652e-06 
    2000     340.1142   -128.24472   -244.52784    829.11111    28.143011    718.82701 0.0073490804  0.004992933 0.0023079384 
    4000    267.55249   -127.10917   -2764.0619     365.2629   -236.98164   -1168.2139 0.0042662397 0.0013730264 0.0045244084 
    6000    295.53187    -127.9342    2170.4178   -76.961589   -225.42143    314.85469 0.0025852084 0.0014084888 0.0039786336 
    8000     289.1829   -127.45562   -2945.2242   -211.38626   -302.87354   -72.163391 0.0018900003 0.0025732717 0.0029666237 
   10000    299.10273     -128.289    2043.0889    348.60743   -544.81206    207.54202  0.001443796 0.0028564609 0.0023946937 
   12000    297.24671   -128.17215    416.92577    90.200309   -223.06582   -127.49727 0.0013657202  0.002472059 0.0019404322 
   14000    308.82022   -127.14651   -1184.3325    409.93929   -124.00367   -315.74333   0.00188832 0.0024429378  0.002055601 
   16000    331.48573   -126.96685     3452.733   -1226.5466    549.43796   -449.40754  0.001679512 0.0030972947 0.0025472393 
   18000    312.01016   -126.56523   -3709.6884    361.49289   -5.3402669    16.305756 0.0015706617 0.0037314905 0.0022677971 
   20000    279.14863   -127.55776    1188.4229   -98.534316   -1176.5434    266.82139  0.001453358 0.0033411628 0.0020860615 
   22000    307.38629   -126.25201    288.21655   -545.97771   -487.60336   -246.68952 0.0012901558 0.0034030621 0.0019243155 
   24000    286.64303   -126.99022   -1138.2959    57.003326    369.10541   -600.88605 0.0015695155 0.0031625959 0.0017617847 
   26000    276.07543   -126.99223    4174.8318   -553.07117   -159.16372    180.75812  0.001750592  0.002935817  0.001867012 
   28000    288.23701   -127.27188   -1952.2523    22.517803   -624.71153   -889.16146 0.0016875444 0.0028051472  0.001792434 
   30000    289.34096   -126.93169    1987.7659   -95.836336   -311.52408    154.19721 0.0015734839 0.0026152704 0.0019333652 
   32000     329.6383   -127.19404   -1121.3264   -172.87392    32.535814   -750.36329 0.0014783723 0.0024779592 0.0018603558 
   34000    300.23272   -126.86721   -2276.0462    29.551946     866.6666   -814.53955 0.0014378222 0.0023897491 0.0017662432 
   36000    273.39433   -127.24858    2404.5416    68.935862   -168.08839    702.38123 0.0013896478 0.0022574647 0.0018280006 
   38000    295.45754   -127.64806   -2485.5975   -295.58651   -228.02393    412.49302 0.0013426518 0.0021712866 0.0016921988 
   40000    312.56722   -127.86734    2960.5449   -61.748985   -447.77284   -36.966394  0.001313828 0.0021294488 0.0016823857 
   42000    329.03865   -127.80088    152.17941   -447.42754    245.40493    120.26221  0.001286154  0.002074211 0.0016579268 
   44000    320.30089    -126.9968   -554.05043    108.40115   -468.63396   -222.52876 0.0013170384 0.0020611043 0.0017052629 
   46000    284.31689   -127.36535    2491.4446   -367.53054   -1263.7927    602.41497  0.001274482  0.001983642 0.0016885707 
   48000    291.12691   -127.52658   -3126.4093   -964.02767    438.39585   -142.58181 0.0012215691 0.0020090188 0.0016188944 
   50000    264.71099   -127.68436    1357.0198   -552.44113   -674.67165   -867.08574 0.0012870978 0.0019549348 0.0015686041 
   52000    334.50872   -127.30816   -60.457931   -351.26762   -674.76912    303.09206 0.0014365318 0.0019501444 0.0017259146 
   54000     279.1527   -126.68697   -1226.7789   -723.16624   -840.32386   -718.52779 0.0015241347 0.0020911224 0.0016904007 
   56000    324.06442   -127.34374    3986.1206    161.53621    363.10898    667.11138 0.0016067491 0.0021422762 0.0016764568 
   58000    359.24465   -126.83918   -2551.6883   -887.79751    492.98982   -118.24493  0.001599412  0.002058366 0.0016101548 
   60000    321.10603   -126.87799    1241.6804     74.61977    100.36174   -154.64199  0.001642214 0.0019831577 0.0015524506 
   62000    314.26099   -126.54533    357.62347   -232.58859   -538.93053    266.37321 0.0016653898 0.0019665445 0.0016311457 
   64000    299.00566   -126.40663    -2034.848    52.020064    220.08196    20.566057 0.0016099583 0.0019514785 0.0016197311 
   66000    317.42399   -127.12011    3195.7628   -542.54887   -28.360205   -835.36543 0.0015860935 0.0018931457 0.0015811819 
   68000    294.80585   -126.90728   -1763.0652    61.929101   -1037.0324    95.754946 0.0016626568 0.0018690188 0.0015415021 
   70000    314.83918   -126.93182    2680.5019    608.38258   -580.54026   -138.43986  0.001666947 0.0019130348 0.0015081805 
   72000    312.04091   -127.56713    725.08768    686.05229   -301.90652    180.55016 0.0016204059 0.0018618358 0.0014643354 
   74000    305.06918   -127.41654   -1957.1178    586.30422    461.61271    172.60853 0.0015898456 0.0018183055 0.0014322523 
   76000    299.51156   -127.02186    2905.9507   -329.48057   -144.54132   -261.66804 0.0015731336 0.0018106029 0.0013968467 
   78000     314.8213   -127.02631    -4008.527    -552.6347   -121.96342     466.4423 0.0015454765 0.0018455355 0.0013747094 
   80000    287.85328   -126.93805    1733.0532   -806.18089   -54.026906    419.59567 0.0015584046 0.0019460836 0.0013446091 
   82000    291.00984   -127.03139     687.6702    241.05854    596.14636   -321.30854 0.0015483769 0.0019108667 0.0013131589 
   84000    300.90181   -126.31221    -151.8339   -539.85049    -129.3577    627.37867 0.0016093344 0.0018995516 0.0012860064 
   86000    315.24471   -126.70851    3709.0756    1137.0018    626.67877    192.88565 0.0015853153 0.0019195182 0.0013306081 
   88000    326.62122   -127.36099   -2327.2431   -112.42899   -564.24748   -51.439966 0.0015960706 0.0019972812 0.0013223187 
   90000    315.23955   -126.12271    2213.7298   -623.32006    74.640925    360.36848 0.0016165841 0.0022404681 0.0012926097 
   92000    271.26441   -127.09385     243.6452   -420.49392   -939.94896    128.04095  0.001570545 0.0023607685 0.0012703235 
   94000    284.70722   -127.01189   -2031.0556   -207.37857   -54.399779   -837.22016 0.0015649663  0.002453916  0.001232819 
   96000    285.82076   -127.02769    3688.0288   -180.32973   -356.85349    378.02293 0.0015476885 0.0024288993 0.0012955109 
   98000    294.76277   -126.99634   -2613.4895   -641.51059   -108.68131    -712.7535 0.0015164035 0.0024757367 0.0014330331 
  100000    329.47742   -127.35723    2066.8178    190.12371    354.00313    94.389341 0.0014826648 0.0024287123 0.0017502861 
  102000    284.23862   -127.50357    42.201043   -372.81217   -101.77974    3.1245633 0.0014524669  0.002384457 0.0018263574 
  104000    310.93098      -127.88   -2844.3421    325.82283     83.75272    340.00444 0.0014377233 0.0023388357 0.0018357331 
  106000    299.98843   -128.16144    1885.5098    -313.8971   -93.807034    -286.7022 0.0014125008 0.0022952688 0.0019061551 
  108000    295.68567   -128.00481    -3302.042   -235.78085   -224.53402   -736.76732 0.0014363699 0.0022804332 0.0019199824 
  110000    309.55007   -128.06162    1280.9632    482.58385   -77.558994    202.53371 0.0014135863 0.0022494674 0.0019364266 
  112000    323.60482   -127.46973    1053.7202    717.89383    111.35111    109.71593 0.0014381942 0.0022255842 0.0018959892 
  114000    287.59312   -127.88993   -1366.5698    273.23848   -50.757825    510.40257 0.0014343032 0.0021928879 0.0018717922 
  116000    270.43417   -127.09966    3160.7035    987.50769   -726.53513    1025.3105 0.0015185864  0.002151671 0.0018379035 
  118000     300.9231   -126.95384   -1594.6513   -182.91128    351.03826    606.88742 0.0015418358 0.0021281979 0.0018298939 
  120000    305.11193    -127.3687    948.57835     208.5762    768.47893    660.39479 0.0015322264 0.0021253487 0.0017814611 
  122000    299.36299   -127.54149    330.94842    1080.1829   -311.64703    217.37568 0.0015705462 0.0021459352 0.0017585278 
  124000    289.46179   -127.09049   -1890.9875   -376.95207    405.05771    468.71193 0.0016389676 0.0021888573 0.0017410102 
  126000    292.47833   -127.23478    3901.8293   -613.01373   -22.302834    89.022861 0.0016253412 0.0021778677 0.0017351068 
  128000    316.62039   -127.90869   -1414.6639    27.298786   -302.95439     -74.7532 0.0016260346 0.0021429092 0.0017107026 
  130000    299.24442   -126.93622    1551.3014   -21.280457   -867.92199     280.4575 0.0015873582 0.0021179144 0.0016927376 
  132000    277.84346   -126.33464    1285.7271    357.51305   -738.64693   -31.516471 0.0015599544 0.0020827066 0.0016673273 
  134000     302.2294   -127.79378   -2390.5084     311.1938    -143.7998   -138.22645 0.0015751618 0.0020551838  0.001645211 
  136000    278.84881   -127.52241    2056.8343   -613.74843   -37.226779   -526.19008 0.0015553031 0.0020407139 0.0016208744 
  138000    270.71801    -127.4862   -1607.0784   -981.23161   -393.78535   -641.99127 0.0015504097  0.002014899  0.001614134 
  140000     288.2583   -127.27351     1208.273   -852.94462    308.81291   -245.12622 0.0016369583 0.0019871855  0.001605518 
  142000    308.41275   -126.75242    2095.4373   -1359.7975   -736.98248    418.57599 0.0017420165 0.0019610733 0.0015902664 
  144000    328.16153   -126.65909   -1216.7981   -89.222656   -277.91577   -311.39708 0.0018285849 0.0019500421 0.0015834387 
  146000    318.26074   -127.44126    2333.7314   -974.84107    4.1408323    397.58775 0.0018269361 0.0019191064 0.0015573873 
  148000    257.24633   -127.19071   -1794.5088   -154.03303    467.58348     416.6304 0.0018108331 0.0018983775 0.0015358288 
  150000    316.71855   -127.01865    482.96693    31.745852    872.40081   -106.98883 0.0018520683  0.001898186 0.0015171233 
  152000    289.94815   -127.41216    1370.4786   -469.86434   -963.60062    599.82129 0.0019360127 0.0018789136 0.0015116127 
  154000    281.84534    -127.0403   -2124.2093    8.4320258    446.59803   -133.33179 0.0020203371 0.0018580116 0.0014964399 
  156000    318.13505   -127.44456    3450.0173    243.99447    349.92802     174.5723 0.0020468029 0.0018835258 0.0014836767 
  158000    322.80606   -126.86954   -1069.6527    440.80736   -880.43229   -649.82013 0.0020767956 0.0018620176 0.0014598611 
  160000    304.37947   -127.26777    183.50679    231.22955    367.09974    135.21631 0.0020545789 0.0018935098 0.0014586981 
  162000    283.93657   -127.22618    797.32867    326.80037    81.738481    442.44709 0.0020303431 0.0018680456 0.0014384835 
  164000    323.51472    -127.2043   -2509.5614    537.49593     1081.115    149.68433 0.0020051052 0.0018482357 0.0014255424 
  166000    345.34302   -127.30553    2430.2613    316.41756    108.69553   -135.48274  0.002017324 0.0018378729 0.0014447503 
  168000    273.16816    -127.1689   -750.08333    304.02046    56.976274   -46.117052 0.0019717821 0.0018161574 0.0014485052 
  170000    283.94015   -127.04863    862.52627    354.19754   -829.47358   -881.78912 0.0019452887 0.0018023474  0.001435213 
  172000    280.58216   -126.79053    1596.9455    253.68659   -6.8767824    527.14436 0.0019209325 0.0018061839 0.0014205509 
  174000    316.72486     -127.292   -2362.6023    603.50409    267.24118   -211.16472 0.0019047669 0.0018252162 0.0014043787 
  176000    309.46394   -127.48833    1670.9036   -338.09516    -892.6626   -758.28138 0.0018834263 0.0018087397  0.001385931 
  178000    281.61214   -128.07501   -1946.1649    855.93439   -408.06241   -56.019678 0.0018828187 0.0018047055 0.0013756466 
  180000    302.21953   -127.57859    28.974393   -184.69893   -804.76253    1089.2247 0.0019106498 0.0018181662 0.0013622832 
  182000    283.27615   -126.10586    3112.5085    1138.0596    817.57148   -335.76878 0.0019093533 0.0018056696 0.0013516107 
  184000    337.27965   -127.31053   -1057.0911   -197.36263   -964.01596   -777.19532 0.0019460683 0.0018014491 0.0013881248 
  186000    318.66826   -127.46685    2394.7177    889.92123   -156.16451     631.7033  0.001928916 0.0017881719 0.0013917376 
  188000     293.2057   -127.66466    -361.1615    220.16002    181.12988    -520.3758 0.0019072902 0.0017701156 0.0013782763 
  190000    305.75406   -128.14442   -1128.6635   -1049.6059   -932.55755    1202.9679 0.0018861988  0.001748853 0.0013704425 
  192000     255.7757   -127.61138    507.14423   -87.057841    414.78814    -1149.358  0.001892255 0.0017316897 0.0013725992 
  194000    279.40791   -127.77726   -1598.3782   -326.75961    238.75032    1084.4694 0.0019098512 0.0017240581 0.0013472742 
  196000    316.44155   -128.50712    1857.2597    115.70461    508.95805   -285.27506 0.0018927041 0.0017116157 0.0013310692 
  198000     310.4518    -128.3343   -1228.6905   -231.19391    594.97104   -173.35452 0.0018747764 0.0016940884 0.0013176176 
  200000    307.22658   -126.90009    1011.7934   -508.28832   -252.51196    545.20788 0.0018587638 0.0016807572 0.0013116882 
  202000    288.78746   -128.42118    530.11276    22.123686   -224.86362   -238.90413 0.0018390065 0.0016637562 0.0012954145 
  204000     303.8882   -127.87663   -2587.0963    121.64781   -688.22443    225.61906 0.0018247088 0.0016487974 0.0012992653 
  206000    306.48656   -128.16623    914.32255   -27.349816   -920.32258   -649.41326 0.0018151167 0.0016375459 0.0012860687 
  208000    279.03864   -127.76254   -1046.8474    24.674215   -1334.1282   -360.95213 0.0017990763 0.0016369922 0.0012730421 
  210000    294.35312   -126.67065    1063.0616    76.549186   -297.88461    633.74066 0.0017808515 0.0016229521 0.0012627048 
  212000    284.79849   -127.52813    1310.9673    294.55359    1240.8155   -1612.8254 0.0017654312 0.0016086011 0.0012495002 
  214000    303.10933   -127.92476   -1358.2751   -266.50777   -930.52018    802.81717 0.0017514243 0.0015929509 0.0012514739 
  216000    310.61543   -127.01666    2942.5917    1096.5194   -645.71264    586.23556 0.0017387159 0.0015798486 0.0012412965 
  218000    273.67235   -127.19713    -941.0708    539.92021    145.85044   -420.13286 0.0017224151  0.001578273 0.0012298379 
  220000     312.8482   -126.82195    369.61806   -158.39837    1015.6299    102.05714 0.0017245335 0.0015642639 0.0012330317 
  222000    257.28613   -127.25294    828.65865   -106.04585    117.33631    807.60838 0.0017160815 0.0015494109 0.0012220084 
  224000    291.86577   -127.58141   -1743.2778    880.71239    630.13551   -673.85821 0.0017172952 0.0015353642 0.0012151015 
  226000    266.96426   -127.74136    2049.5622    619.53787    285.12587    434.97032 0.0017255883  0.001525338 0.0012037645 
  228000    275.08969   -127.61208    -768.8187   -139.01782   -565.26916   -219.98526 0.0017128552 0.0015140929 0.0012048362 
  230000    292.85323   -127.67655     313.7743   -259.62769    1153.6414    66.418375 0.0017093653 0.0015128687 0.0012032058 
  232000    268.86622   -128.01033    658.26037   -30.625605   -39.758385    1583.4705 0.0017121036 0.0014990377 0.0011898231 
  234000    288.58605   -127.38667   -2170.3866   -557.66442    599.92033     -486.524 0.0017304591 0.0015212989 0.0011813734 
  236000    306.40316   -127.92767    1865.7408   -215.85819    614.37515     794.5706 0.0017373155  0.001583914 0.0011717947 
  238000    304.68385   -127.94993    -1396.427   -485.00628    352.32879   -466.61022 0.0017389959 0.0016058526 0.0011854524 
  240000    289.52257   -128.36041    480.68982   -410.80128     67.09672   -388.28266 0.0017318197 0.0016652658 0.0011991416 
  242000    295.27015   -127.83346    705.17684   -28.735243    213.61308    -410.3839 0.0017173459 0.0016923682 0.0012060128 
  244000    308.92268   -126.96306   -777.53782    268.15879    500.79117    259.77245 0.0017068955 0.0016748724 0.0011931778 
  246000    314.85079   -127.83039    2041.5643    -1285.406   -462.01397    209.50063 0.0016996316 0.0016715305 0.0011789704 
  248000     284.7554   -127.54383   -2017.2956   -66.487392   -87.387216    538.30125 0.0016943754 0.0016568163 0.0011679274 
  250000    290.14424   -127.47514     110.0586   -198.30235    661.94451    1041.2938 0.0016805027 0.0016477568 0.0011592762 
  252000    312.29624   -127.43426    1385.7684   -663.75479   -425.31574    763.25187  0.001678817   0.00164024 0.0011489348 
  254000    270.49338   -127.49041   -1757.8288    481.85962    605.68172   -164.75147 0.0016655369 0.0016396168 0.0011438287 
  256000     279.9963   -127.80831    2034.7805    771.58214    433.39489    -918.1612 0.0016742073  0.001630026  0.001139245 
  258000    284.66085   -126.95365   -607.39194    943.89494    -277.5619   -355.34349 0.0016618055 0.0016294258 0.0011314449 
  260000    306.07652   -127.72259    313.07601    454.22838   -322.71461      478.459 0.0016539642 0.0016298133 0.0011260298 
  262000    283.89923   -127.65487    245.36238    18.429436     150.8604   -510.56962 0.0016452696 0.0016170844 0.0011133821 
  264000    310.25013   -127.60224   -1430.8384   -66.106727   -148.22925    226.66079 0.0016306426 0.0016105332 0.0011087355 
  266000     288.9507    -127.8323    1300.4738    -350.2701   -603.22389   -213.74149    0.0016191 0.0016077571  0.001100153 
  268000    298.90566   -127.84303   -1590.3113   -43.375084    201.98521    304.53612 0.0016122384 0.0015948195 0.0010922439 
  270000    310.08324   -127.65849     1425.274    273.54654   -207.17938   -162.55318 0.0016082737 0.0015935693 0.0010888329 
  272000    253.85253   -128.26467    412.44723    1003.4186    152.44797   -599.78432 0.0015989583  0.001583294 0.0010782095 
  274000    296.57384    -128.2705   -1102.4786   -1201.5111    412.75685    -486.2783 0.0015894347 0.0016011178 0.0010694946 
  276000    335.31165   -127.67577    1739.4465    291.65429   -1047.0494   -830.81613 0.0015840769 0.0015925614 0.0010593331 
  278000    296.51601   -127.62652   -1524.5662   -246.18449    88.006098    68.295823 0.0015711979 0.0015789352 0.0010521619 
  280000    293.20757   -127.72858    810.44925    142.56461    681.13461    171.58468 0.0015599047 0.0015799745 0.0010586464 
  282000    286.71624    -128.4056    360.05024    162.69822     -363.555    532.00552 0.0015492769 0.0015732583 0.0010550156 
  284000    298.33117   -127.73808   -377.77522    845.33129   -678.23573   -387.55762 0.0015497943 0.0015612914 0.0010523141 
  286000    318.10411   -127.17045    2836.2654    540.32202   -804.37493   -265.77401  0.001546896 0.0015513378 0.0010728774 
  288000    300.22245   -128.49739   -1843.5167    85.603184   -921.95432   -211.26791 0.0015474042 0.0015446038 0.0010868976 
  290000    297.56106   -128.10854    472.62921    806.41212    804.36112   -184.50171  0.001561356 0.0015330066 0.0011014546 
  292000    322.79089   -127.18957   -459.03325   -232.20172   -349.33773   -597.16334 0.0015707317 0.0015232523 0.0011418347 
  294000    293.15054   -127.59148   -1506.4809    226.82815      45.7816   -331.48087 0.0015625937 0.0015151456 0.0011544339 
  296000    273.98705   -127.64109     2200.832     141.2421   -354.25146    503.76658 0.0015526351 0.0015120349  0.001164248 
  298000    324.46059   -127.94307   -852.95845    172.42027    182.23115   -392.89359 0.0015560635 0.0015058484 0.0011544053 
  300000     322.6349   -126.66899    2579.5566    766.52565    347.71297   -843.96405 0.0015439827 0.0014983102 0.0011628995 
  302000    312.76627   -127.49678   -360.92052   -253.94053   -2.7619719    157.44261 0.0015393001 0.0014887842 0.0011838984 
  304000     270.2937   -127.78022   -1220.3261    184.62118    271.09903    32.596517 0.0015420158 0.0014905292 0.0011757621 
  306000    300.76698   -127.60858     1072.033    157.70835   -172.23916    663.39216 0.0015443851 0.0014835668 0.0011673397 
  308000    303.15711    -127.0553     -1993.02    -255.7591   -161.54223   -369.45873 0.0015385581 0.0014888224 0.0011623497 
  310000    284.55745   -127.44428    1476.9686    272.36981    110.60737    249.78875 0.0015340157  0.001485629 0.0011581384 
  312000    287.96638   -127.61755    220.25685   -615.29247    -324.7332   -1031.0313 0.0015267617 0.0014798608 0.0011521994 
  314000     292.6579   -127.64393   -135.90086   -440.62398    261.18494     125.9076 0.0015392445 0.0014727206 0.0011462869 
  316000    301.22846   -127.01014    2688.4669    1162.0535   -118.55141    381.44117 0.0016009506  0.001464299 0.0011660902 
  318000    276.50169    -127.6164   -1248.3028   -306.72844    184.82411   -282.10047 0.0015953974 0.0014578446 0.0011814086 
  320000    295.07179   -127.87247     944.4757    224.75833   -160.81632    821.70627 0.0015919251 0.0014644707 0.0012095646 
  322000    275.21323    -127.0597   -639.59359   -438.07124   -18.690797   -509.50061 0.0015869078 0.0014529487 0.0012042533 
  324000    309.62505   -127.60718   -1029.6706   -45.650669    779.76642   -376.61646 0.0015757527 0.0014456559 0.0012006378 
  326000    338.39638   -127.44529    1601.5531    -272.4404   -503.33648    687.19594 0.0015684976  0.001445732 0.0011933918 
  328000    287.45671   -126.83207   -1030.4885    -887.7514     501.9619    197.09384 0.0015593963 0.0014384943 0.0011893919 
  330000    289.39937   -127.39767    939.71966    361.72105     887.8015   -468.43645  0.001561079 0.0014328466 0.0011872744 
  332000    278.65186    -126.9951    137.66891   -294.67706   -670.25603    186.93242 0.0015563676 0.0014332512 0.0011944103 
  334000    288.78891   -126.84079   -803.32803    63.915114    138.33149   -629.60477 0.0015475856  0.001422132 0.0011817151 
  336000    305.46564   -128.52928    672.81453   -365.51221    -362.9213    1123.9976 0.0015509102 0.0014121687  0.001173341 
  338000    302.65734   -128.15291   -1181.5339   -179.57954   -478.35449    374.89609 0.0015604687 0.0014031851  0.001195211 
  340000    351.24846   -127.87096    762.33816   -150.82291    566.92662    198.24407 0.0015561349 0.0013942579 0.0012043061 
  342000    296.48762   -127.81525   -175.50355    477.72531   -602.98009    469.94783 0.0015525693 0.0013850461  0.001206983 
  344000    316.53016   -126.63968    504.53739    42.410086   -5.9663232    165.51875 0.0015451041 0.0013745827  0.001203076 
  346000    310.21485   -127.32658    1750.7158    -333.4943    645.24103    222.27341 0.0015412267 0.0013660692 0.0012139398 
  348000    295.40717   -127.32425   -951.61041    43.795761    647.85613    31.148285 0.0015325502 0.0013578087 0.0012157265 
  350000    304.53627   -127.92931     590.1238   -604.99145    269.19224    614.19695 0.0015232425 0.0013586131 0.0012084644 
  352000    302.12795   -127.02503   -435.49871     380.3867   -480.18453   -50.192274 0.0015164652 0.0013484915 0.0012006914 
  354000    305.34622   -128.28278   -904.29163   -878.67847   -168.98017    388.66822 0.0015108848   0.00134156  0.001201281 
  356000    303.23909   -127.28842    1559.3296   -41.331065   -325.51368    850.79339 0.0015042858 0.0013369808 0.0011957342 
  358000    287.01035   -127.67176    -845.2025    280.95551   -346.15829   -164.31652 0.0014963871 0.0013306304 0.0011884335 
  360000     282.6707   -127.31056    1684.1319   -47.638871   -117.44888   -481.64499 0.0014883552 0.0013225724 0.0011803083 
  362000    308.91577   -128.19952   -897.20798    270.58677   -875.01177     731.6223 0.0014970668 0.0013294773 0.0011739232 
  364000    313.67829   -127.96664   -1261.7319    -234.0761     29.37112      465.137 0.0014839332  0.001323122  0.001169225 
  366000    266.99791   -127.48429    279.59537    294.74059     -368.482    353.09692 0.0014776808 0.0013176677 0.0011704889 
  368000    299.86826   -127.95039   -1128.2248   -681.32219   -1075.1471    58.454801 0.0014813892 0.0013105541 0.0011651546 
  370000    312.08443   -127.99605    640.29275   -629.98604   -786.07006    62.973093 0.0014719546 0.0013026412 0.0011687841 
  372000    286.89925   -128.11618    364.41382    236.66938    434.29622   -1054.4378 0.0014820642 0.0013002999 0.0011683858 
  374000    303.30618   -128.06385   -199.11016   -121.34798   -804.26514   -937.37422 0.0014809814 0.0012910875 0.0011614878 
  376000    301.73545   -128.04457    1743.9096     -304.003   -269.51129    209.94827 0.0014739811 0.0012899364 0.0011619224 
  378000    313.10341   -126.92397   -812.31133    96.310407    946.66454   -874.11152 0.0014708729  0.001284877 0.0011516215 
  380000    270.33311    -127.2948    632.68054     19.27563   -174.75429    72.599801 0.0014628681  0.001286388 0.0011446944 
  382000    320.85414   -127.58827      236.303    -320.1796    31.538851    418.39361  0.001461834 0.0012874629 0.0011425532 
  384000    315.73459   -127.19796    230.73622   -630.43136    560.97254    1043.6896 0.0014620928 0.0012837426 0.0011595389 
  386000    304.63557   -128.08636    412.65386   -544.35808    -890.1605   -423.51644 0.0014547837 0.0012960645 0.0011735611 
  388000    277.83919   -127.26318   -319.11113    199.34508    555.52622    188.76011 0.0014530886 0.0013449659 0.0011728643 
  390000    280.54069   -127.14881    635.50471    -138.4527    27.970515    524.02085 0.0014433316  0.001343027 0.0011683815 
  392000    291.28793   -126.76953      260.173   -243.39959    253.09276   -497.51732  0.001437616 0.0013396916 0.0011710494 
  394000    323.71616   -127.47816   -216.56648    231.15662   -90.399378   -318.99854 0.0014519606 0.0013541618 0.0011786343 
  396000    289.11491   -127.16046    1623.5105   -126.84509   -146.60367    2.8580282 0.0014697934 0.0013442523  0.001172921 
  398000    313.58451   -126.93757   -180.62004   -116.07307   -442.25841   -416.06853 0.0015250539 0.0013377231 0.0011667841 
  400000    336.01897   -127.51969    1017.3731    728.60713   -295.60458    833.85454 0.0015398226 0.0013324437 0.0011614946 
  402000    317.51339   -128.19326    229.87903    141.54578    166.45005    457.19496 0.0015378677 0.0013332835 0.0011663521 
  404000    307.59667   -127.48445   -425.15545    253.70399   -902.17927   -80.333984 0.0015313669 0.0013224642 0.0011634518 
  406000    300.14151   -127.03171    1436.5001   -520.57204   -1443.0452   -79.435971 0.0015250417  0.001344821 0.0011740505 
  408000     289.4953   -127.09941    488.56129     212.3459    126.12455     872.6444  0.001528845 0.0013420654 0.0011666107 
  410000    261.78317   -127.39494    581.13275   -396.72082   -157.65339   -398.52469 0.0015407457 0.0013333499  0.001175476 
  412000    289.18689   -127.10909    1596.5465    286.61855     683.3572    47.478355 0.0015577778 0.0013339119 0.0011806456 
  414000    303.53912   -127.69837     100.3294    -1490.084    1319.0865    500.67813  0.001552899 0.0013484971 0.0011797378 
  416000    278.82829   -127.78511    1170.6683    149.00273     222.6429   -938.39703 0.0015633543  0.001349394 0.0012004799 
  418000    299.95447   -127.26921   -786.92878    85.651402    957.86391    1031.7429 0.0015552627  0.001355104 0.0012117572 
  420000    266.29917   -127.42829    559.48837    221.84156   -105.39816    244.98851 0.0015442322 0.0013506695 0.0012160096 
  422000    293.56501   -128.41724   -738.15502    982.79157    -259.8505    267.18136 0.0015425075  0.001347519 0.0012140388 
  424000    325.80974   -127.61863   -868.52571    350.69321   -295.74005    -547.2332 0.0015599941 0.0013438461 0.0012088223 
  426000    296.03273   -127.86363    1543.6003    850.41419   -483.29401    791.87487 0.0015617694 0.0013404755 0.0012028288 
  428000    303.64863   -127.85037   -1344.8804    1430.3528   -766.59317    100.03461  0.001556263  0.001343661 0.0011985349 
  430000    280.10323   -128.12594    639.87853    371.97293   -1295.4266   -112.18846 0.0015542989 0.0013564176 0.0012027149 
  432000    315.26696   -127.09326    1365.9164    348.85601    469.10358    128.66139 0.0015483105 0.0013627704  0.001206296 
  434000    304.30323    -127.8805   -460.66059   -134.02687    -239.2895    53.706718 0.0015463342 0.0013925938 0.0012010629 
  436000    280.49547   -128.20792   -48.033202   -712.55298    6.0017502    392.83237   0.00155217 0.0014018674 0.0011969901 
  438000    301.40126   -126.71416    126.97952    379.26213    416.25281    -716.9519 0.0015563688 0.0013976154 0.0011952553 
  440000    285.54309    -127.4951     930.1027   -1246.1653    220.26483    389.90935 0.0015549487 0.0013928723 0.0012112719 
  442000    317.17285   -128.14168    562.92908    215.29018    647.55346    648.29518 0.0015497457 0.0013892763 0.0012138232 
  444000    320.41288   -127.78125   -268.91922    148.92135    121.10993   -455.68734 0.0015407572 0.0013838369 0.0012141903 
  446000    302.59912   -127.74421    837.77394   -665.93476   -208.83382    566.57032 0.0015336468 0.0013779463  0.001219566 
  448000    291.06682   -127.12396   -379.05105    102.87176    839.84243   -968.34804 0.0015269639 0.0013717645 0.0012212906 
  450000    329.15863   -127.90358    -458.9401   -660.33088   -761.16145    49.213442 0.0015223083 0.0013699415 0.0012231972 
  452000    351.21194   -127.29636    675.69696    1006.1297    634.52627    445.68475 0.0015186628 0.0013631827 0.0012184735 
  454000    279.88301   -128.42987   -1101.6123    683.05515    178.09449   -158.17347 0.0015172301 0.0013566223 0.0012106107 
  456000    302.27774   -127.28307    1506.9185    811.09594   -19.736247     -239.305 0.0015112966   0.00134871 0.0012067789 
  458000    286.11081   -127.42912   -485.92633    640.72311    699.39503   -890.15596 0.0015047651 0.0013424432 0.0012026449 
  460000    290.44804   -127.38556    737.32286   -474.01126   -241.60676   -521.98335 0.0014979385 0.0013369003 0.0012016766 
  462000    284.20452   -127.36709    724.59006    473.33156    279.32565   -184.08406 0.0014981108  0.001334149 0.0011964349 
  464000    266.44381    -127.7613   -1303.6875   -770.66151    474.36052   -658.61121 0.0014931063 0.0013288446  0.001198749 
  466000    315.31912   -127.28424    885.20024   -197.96627    -121.1158    230.70059 0.0014870094 0.0013329011 0.0012013117 
  468000    291.25489   -127.53158   -67.429081    506.93429   -117.43756   -332.11786 0.0014858265 0.0013346085 0.0011997012 
  470000      306.119   -127.45317    -10.90683   -866.09801   -165.27114    1209.7136 0.0014810643 0.0013503454 0.0012036661 
  472000     320.1401   -127.19762    1175.7233    34.026997    549.02744    209.60133 0.0014778254 0.0013652821 0.0012012764 
  474000    324.16314   -126.86696   -715.02017    -401.8283   -588.50109   -888.62076 0.0014723712 0.0013671485 0.0012030838 
  476000    314.89637   -128.00159    357.68235    -12.83283    84.384491    860.30572 0.0014680687 0.0013887184 0.0012444253 
  478000    297.12216   -127.06945   -313.05156   -116.48814   -267.28769   -455.45975 0.0014720863 0.0013906555 0.0012366837 
  480000    273.49453   -127.40743    225.14938    125.99286    756.45598   -426.25362 0.0014667074 0.0013859554 0.0012385092 
  482000    277.91046   -128.51066   -172.56979   -29.370111   -741.43707   -1208.3028 0.0014689658 0.0013823019 0.0012401244 
  484000      285.349   -127.57173   -865.54306    873.36972    -409.3755    -1928.777 0.0014789782  0.001377261 0.0012405771 
  486000    285.77762   -127.94279    684.77137   -354.27029   -670.58512     773.6348 0.0014697267 0.0013771417 0.0012334709 
  488000    280.08661   -126.80357    -25.68186    712.47883   -320.93546   -915.84711 0.0014646426  0.001379659 0.0012295083 
  490000    278.43113   -127.59473   -6.7409789   -979.88299    487.19096    715.82852 0.0014589746 0.0013958859 0.0012265963 
  492000    328.46468   -127.10832    1201.7526   -1430.4137   -901.13067    336.09496 0.0014755624 0.0013963436  0.001230182 
  494000    282.58944   -127.76542   -762.12039   -710.09547    1130.1128    315.00003 0.0014860826 0.0013969866 0.0012263056 
  496000    287.23758   -127.52294    931.55201   -603.90789   -1927.2231    837.73017 0.0014795365 0.0013927292 0.0012203078 
  498000     269.0808   -127.68448   -985.33388   -386.60167   -26.174515   -1299.0135 0.0014746716 0.0013891895 0.0012167016 
  500000    288.70103   -127.43405   -57.630882   -263.11186    -270.0933   -175.49549 0.0014701309 0.0013856618  0.001215511 
  502000    316.24557   -126.69073    1098.9976    217.04713    506.68118    215.57103 0.0014652521 0.0013841197 0.0012113064 
  504000    333.23642   -127.33493   -726.24941    132.40714    189.70142    29.345993 0.0014638345 0.0013793407 0.0012077265 
  506000    301.12521   -127.64982     537.3872   -210.91519   -39.579835    262.55099 0.0014566892 0.0013743043 0.0012031646 
  508000    292.18598   -127.72011     -112.199    -736.8011   -123.48405    764.74869 0.0014544171 0.0013685622 0.0011982903 
  510000    269.04362   -127.99534    133.68471   -111.98311   -446.97442    1128.8594 0.0014484711 0.0013617669 0.0011960821 
  512000    283.04761   -126.80595    706.72891    575.15901     135.7727    763.81991 0.0014439221 0.0013595902 0.0011972381 
  514000     302.4293   -126.94291   -462.03377    -360.5043    245.48999    -580.9502 0.0014393215   0.00136502 0.0011936947 
  516000     313.4734   -127.24146    1103.8306    1225.9794   -649.70212    217.75544  0.001442124 0.0013614636 0.0011894969 
  518000    304.61849   -127.16478   -660.44951    174.22968    316.13875    363.14573 0.0014418913 0.0013577897 0.0011909728 
  520000    306.42692   -128.18144    26.232202   -288.05667   -125.78719   -255.74101 0.0014369299 0.0013600013 0.0011875826 
  522000    316.84421   -128.01008    865.39623    305.00565   -18.642633    89.029675 0.0014320174 0.0013575623 0.0011839092 
  524000     287.4821   -127.73858   -726.97547   -996.95748   -542.23405   -30.830269 0.0014353552 0.0013550669 0.0011840763 
  526000    282.98972   -127.48552    1175.0624   -9.7457788   -642.87191   -537.71254 0.0014294388 0.0013603879 0.0011908239 
  528000    306.41256   -127.17625   -77.865794   -462.59559   -646.12322   -236.91363  0.001434669 0.0013590147 0.0011858171 
  530000    270.49892   -126.89193    624.95691   -954.18445   -512.89274    657.58748 0.0014368662 0.0013658213 0.0011811833 
  532000    318.25836   -127.71249    1101.7107    262.61106    334.21251    -1065.531 0.0014329059 0.0013668863 0.0011769562 
  534000    321.92881   -128.02892    -716.7664   -576.06087      103.401   -51.163147 0.0014285483 0.0013637235 0.0011722804 
  536000    314.42105   -128.04487    848.17475    107.23367   -265.09027    184.84868 0.0014253871  0.001361352 0.0011676702 
  538000    299.23875   -128.08257   -884.62182    44.180312    169.03123    -256.3816 0.0014207829 0.0013573977 0.0011725867 
  540000    304.37441   -127.51698    429.39605    196.78145   -56.715459    375.31946 0.0014162056 0.0013544007  0.001173244 
  542000    268.71822   -127.30463    225.36983     199.0404    124.67676   -504.09725 0.0014116605 0.0013468017 0.0011720733 
  544000    293.32573   -127.45686   -116.59404   -666.92001   -524.76187   -6.3353343 0.0014121241  0.001342491 0.0011673074 
  546000    298.97596   -127.00105    1037.5652   -1239.4711    573.04285    897.86098 0.0014079672 0.0013415369 0.0011668704 
  548000    335.32106   -127.72747    365.14696   -817.08359    102.96365    239.37033 0.0014029046 0.0013356315 0.0011662449 
  550000    315.47768   -126.66527    1393.4146    1111.8706   -658.61489   -610.27077 0.0013993675 0.0013321004 0.0011667204 
  552000    326.28552   -127.48116    275.08682   -435.79512   -169.65071   -18.179943 0.0013953671 0.0013357435 0.0011632118 
  554000    284.04656   -127.19097    365.44822    416.73506    860.38753   -755.62067 0.0013944333 0.0013329908 0.0011596475 
  556000    283.16422   -128.83889    388.86256   -141.20221   -829.49564   -421.80225 0.0014016273 0.0013298847 0.0011547547 
  558000    276.60947   -127.92232   -229.50277   -422.78407    2.4299341   -777.88549 0.0013965103 0.0013254103 0.0011499623 
  560000    334.86704    -128.8356    285.09249    473.62659    17.454895    582.99317 0.0013943467 0.0013188321 0.0011522965 
  562000    292.22724    -127.5523    665.74762   -558.06363     45.03211    361.00247 0.0013905248 0.0013218916 0.0011473199 
  564000    290.07156   -128.21832   -572.48307     525.8185    995.13557     1142.235 0.0013869839 0.0013180447 0.0011452976 
  566000    305.15157   -126.61691    910.57486    179.00901    469.17604   -401.72928  0.001382416  0.001316655  0.001146126 
  568000    272.31093   -127.73102   -534.14166   -326.36386   -93.486923    172.58647 0.0013797559  0.001310078 0.0011657941 
  570000    285.96794   -127.25787    157.98036   -23.811603    332.97515   -677.97748 0.0013758516 0.0013090828 0.0011689914 
  572000    343.86965   -127.48712     210.7637   -897.62877    315.72645   -851.09366 0.0013708915 0.0013198318 0.0011664456 
  574000    284.26942    -127.4765   -342.22031   -146.57338   -559.48923   -494.94509 0.0013669858 0.0013276557 0.0011617959 
  576000    299.02402   -127.28518    902.53461   -525.10532    473.60772    12.903262 0.0013626372 0.0013247804 0.0011621998 
  578000    328.74974   -127.41669    443.11257    47.635288    -621.6835   -200.51117 0.0013587792 0.0013223391 0.0011765111 
  580000    292.82628   -127.83953    67.453814   -379.25039    657.15929    866.37364 0.0013618235 0.0013203245 0.0011769214 
  582000    271.57399   -127.57829    810.75739    87.249888    812.44803    691.65009 0.0013587185 0.0013133197  0.001176068 
  584000    287.65706   -126.66616    798.05839    172.95731   -755.10437   -284.91153  0.001354742 0.0013189014 0.0011756036 
  586000    339.33355   -127.61138    912.12664    34.568304    547.68082   -139.92593 0.0013547974 0.0013151279 0.0011714399 
  588000    326.49912   -127.21156    725.93536    1056.1813   -1683.4664    47.024265 0.0013511479 0.0013116489 0.0011747824 
  590000    305.94938   -127.35301    526.80289   -670.58747    337.50178   -42.023721 0.0013461518 0.0013061035 0.0011698002 
  592000    282.13011   -127.30025    673.93837    545.76735    516.77147   -570.85804 0.0013443009 0.0013026037 0.0011738521 
  594000    292.03164   -127.69454   -75.107439   -347.59823   -800.28376   -41.607754 0.0013443695 0.0013046042 0.0011798616 
  596000    326.64491   -127.51918    756.71511    577.00584    342.59593   -315.90372 0.0013492691 0.0013025119 0.0011771113 
  598000    305.33807   -127.12652    784.47023   -920.10031   -418.23307   -183.17202  0.001344238 0.0013214801 0.0011850651 
  600000    297.67649   -127.58903    1.5178055   -354.44379   -631.90028   -526.67088 0.0013401536  0.001325306 0.0011826388 
  602000    279.65914   -127.31661    644.14078   -677.23245    68.258482    168.97438 0.0013355403 0.0013209963 0.0011831515 
  604000    295.98781   -127.52811   -944.60286   -262.73785   -336.90539    -605.7207 0.0013307366 0.0013171866 0.0011891202 
  606000    304.80052   -127.09739    1242.3713    239.34719    265.10984   -735.00396 0.0013274103 0.0013155966 0.0011952903 
  608000    317.44935   -126.99427     -278.719   -583.08035    953.86529   -61.468291 0.0013256692 0.0013137649 0.0011972884 
  610000    270.29293   -127.29831    850.02205    281.84291    764.88161   -556.26428 0.0013221051 0.0013101285 0.0011932197 
  612000    321.54257   -126.80387    1730.4778    300.62435    895.51964    331.07173 0.0013200352 0.0013099485 0.0011936829 
  614000    296.39967   -128.04924   -293.99698    866.47163      236.108   -1186.1461 0.0013189506 0.0013147761 0.0012014299 
  616000    318.94594   -127.88141    54.837878    656.74949    1121.1531   -395.76968 0.0013161798 0.0013140279  0.001208138 
  618000    332.95678   -127.65934    357.58443    534.05581   -177.54584   -176.49466 0.0013119291 0.0013130829 0.0012102562 
  620000    304.05775   -127.91394   -293.97259    377.21189    60.023624   -434.96756 0.0013087632 0.0013239639  0.001209765 
  622000    317.85847   -128.37265     785.4796    821.91548   -69.585994    606.85606 0.0013046604 0.0013316951 0.0012080958 
  624000    328.11411   -127.08514    193.32421   -168.00229   -922.02919   -1231.4621 0.0013006604 0.0013283551 0.0012045117 
  626000    294.40636   -128.17823    649.27953    8.3893495    957.30682    181.86655 0.0012963171  0.001324411 0.0012044742 
  628000    319.75024   -127.61607    -370.2607   -21.411603   -344.50403   -109.91986 0.0012945684 0.0013263203 0.0012063803 
  630000    262.13084   -127.41807   -360.50591   -754.63286    -603.6562   -75.139795 0.0012903844 0.0013291876 0.0012038028 
  632000    239.38316   -127.50323    926.01303    590.51414   -67.693337    306.18755  0.001289106 0.0013266985  0.001199986 
  634000    285.01092   -127.60685    -523.2504   -719.58094    860.85175    565.92253 0.0012844173 0.0013293458 0.0011972248 
  636000    305.84331   -127.29389    236.24949   -550.71442     382.3994    608.99693 0.0012798032 0.0013304885 0.0011936717 
  638000    278.96027   -127.43541      1164.12   -240.75731   -144.03419     601.2223 0.0012771398 0.0013263887 0.0011903548 
  640000    309.29894   -127.01958    581.33263   -20.535389    428.54314   -136.03705 0.0012783114 0.0013228373  0.001186286 
  642000    325.69578   -126.87055    1410.4514    1498.6062    887.90807    189.20433 0.0012772195 0.0013190482 0.0011856929 
  644000    295.81586   -127.41584    76.417367    92.156662   -660.01119   -426.28296 0.0012732608 0.0013154551 0.0011788728 
  646000    274.41962   -127.27548    -90.84625    1049.2525   -102.61843   -70.913818  0.001271199 0.0013134078 0.0011765249 
  648000    272.81235    -127.7465    497.80528     1930.455   -632.90675    171.59027 0.0012696348 0.0013134181 0.0011767017 
  650000    308.94339   -127.36471     432.2005   -369.31496   -124.27924   -84.525835 0.0012735944 0.0013138515 0.0011769169 
  652000     301.0351   -126.40793    592.15315   -616.67451    691.64957   -168.97222 0.0012764245 0.0013126043  0.001174229 
  654000    293.69013   -127.35978    -727.3774   -276.61337   -51.568397    50.796786 0.0012955543 0.0013071936 0.0011849867 
  656000    288.48061   -126.70726     273.2756   -371.81681    442.00085   -41.540142 0.0012890623 0.0013044657 0.0011822833 
  658000    332.00002   -126.80947    206.57602    370.39043      794.046   -24.886506  0.001284276 0.0013047467 0.0011787538 
  660000    291.11211   -126.89357    212.97802    4.9971774   -66.769753     176.0762  0.001293334 0.0013028478 0.0011753905 
  662000    327.73476   -127.98389    771.63147   -170.15385   -69.557463   -988.58868 0.0012925725 0.0013021461 0.0011723615 
  664000    306.02196   -127.87253   -76.442989    87.752825    201.04524    49.942987 0.0012898164 0.0012987293 0.0011703642 
  666000    297.26627   -127.40056    662.49257   -122.76783   -467.30041    130.57226 0.0012867447 0.0012987287 0.0011671046 
  668000     296.9302   -127.54617    521.89722    679.21951   -266.86326   -315.38303 0.0012833141  0.001306436  0.001177188 
  670000    291.31952   -127.20315    189.99579    -784.8882   -480.75333    81.775734 0.0012799024 0.0013141709 0.0011805794 
  672000    313.94216   -127.63117    576.41063    234.30302   -210.62699    240.30963 0.0012761425 0.0013279814 0.0011803014 
  674000    295.92296   -127.84858   -157.42744    95.909766  -0.30193524   -84.023977 0.0012749596 0.0013225973 0.0011763204 
  676000    275.06909   -127.41054    291.96053    1356.1821    -308.3259   -482.87177 0.0012728452 0.0013191113 0.0011731454 
  678000    298.73895   -128.02079   -371.96927    20.489597   -28.383971     86.87784 0.0012847386 0.0013158886 0.0011742924 
  680000    261.72443   -127.29125   -521.41271    606.40963    1167.3198   -150.20301 0.0012869975  0.001315381 0.0011841971 
  682000    317.00369   -127.88808    765.56672   -251.98399    497.94931   -1191.3967 0.0012845483 0.0013116065 0.0011924633 
  684000     317.1931   -128.15279   -1387.3682   -75.824531    628.24962    165.37276 0.0012828505 0.0013216211 0.0012086833 
  686000    274.33381   -127.32366    585.54737    605.83943   -136.12335    285.40965 0.0012833457 0.0013208011 0.0012156373 
  688000    277.30046   -127.68999    107.70279   -249.81955    10.086143   -393.32566 0.0012800056 0.0013179229 0.0012131562 
  690000    306.30087   -127.72185     118.5236   -198.52355   -161.94126   -59.018487  0.001277743 0.0013195216 0.0012088484 
  692000    286.80769   -127.28208    683.43513    78.181658    55.136877    125.07976 0.0012744412 0.0013247119 0.0012122638 
  694000    292.92175   -127.67903    128.73715   -643.55789     51.55794   -850.35278 0.0012710743 0.0013254867 0.0012182717 
  696000    310.47266   -127.91172    766.25089   -941.52086   -475.62688   -277.98767  0.001270264 0.0013201591 0.0012276866 
  698000    263.81147   -127.11156    1106.2012    178.65627    1597.7037   -493.84715 0.0012645707  0.001319842 0.0012315187 
  700000    322.92205   -127.72281   -788.09658   -349.17744   -214.07786   -958.30641 0.0012618829 0.0013186495 0.0012304145 
  702000    356.00872    -127.3558    458.87399    817.39059   -499.77367    -216.3579 0.0012598119 0.0013145902 0.0012278776 
  704000    271.09343   -128.02803   -1200.8692    -740.3414     -8.01369    -407.2712 0.0012578989 0.0013160011 0.0012411788 
  706000     295.5432   -127.53005    459.57606     171.6639    907.51701   -1146.8813   0.00125514 0.0013116507 0.0012662651 
  708000     318.6435   -127.35837   -268.26272    513.51009     84.12099   -69.725014 0.0012527718 0.0013143862  0.001268104 
  710000    307.22241   -128.35415   -428.93215   -939.66708   -369.76425   -551.21903 0.0012568052 0.0013105646 0.0012645645 
  712000     333.6278    -127.8746    941.06739    626.18273   -984.47478    -118.0235 0.0012540585 0.0013082306 0.0012735222 
  714000    303.93798   -128.40897   -414.95553     253.7965    -640.8818    6.6789467 0.0012516492 0.0013035091 0.0012722656 
  716000    257.94974   -127.81547    1711.3208   -321.14095   -990.44536   -166.67654 0.0012510084 0.0013004227 0.0012703172 
  718000    319.11757   -127.92418    92.474796     32.52628    -271.6701   -772.56377 0.0012470073 0.0012978392 0.0012665453 
  720000    266.52581    -127.5567    112.34941   -153.92837     518.9847   -574.70635 0.0012436099 0.0012949165 0.0012644297 
  722000    288.99983   -127.92787     608.1936   -620.92843   -817.26612   -618.84526 0.0012402859 0.0012905715 0.0012621574 
  724000    286.23539   -128.11157   -1109.2773    -138.0403   -5.6258753     92.58031 0.0012377913 0.0012870119 0.0012635173 
  726000    288.60349    -127.5438    11.856581   -516.80186   -512.36372    705.26141  0.001234594 0.0012830271  0.001260614 
  728000    301.24507    -127.7561    418.07437    451.23582    363.85872   -754.58706 0.0012317245 0.0012801662 0.0012573664 
  730000    279.82545   -127.94538    -709.5461   -1124.5076    302.78714   -1723.3258 0.0012280676 0.0012770813 0.0012542622 
  732000    308.03023   -128.38945    332.70784   -386.55331    459.18673   -1234.3268 0.0012259953 0.0012763777 0.0012555345 
  734000    276.73534   -127.19975   -1247.0065   -469.52253   -228.00942   -938.25535 0.0012248996 0.0012710594 0.0012757656 
  736000    291.47473    -128.3557   -523.89021   -6.9988569    449.04201   -1191.7709 0.0012234049 0.0012674643 0.0012721344 
  738000    324.42219   -128.35025    -475.6214    1554.1295    361.29601    659.88868 0.0012202496 0.0012638479 0.0012683345 
  740000    289.56793   -127.32308    97.585646    150.50293    317.80854    325.53759 0.0012210301  0.001262004  0.001264532 
  742000     304.4714   -127.62448    728.50156    34.101111    714.51542    750.54412 0.0012180392 0.0012589617  0.001263246 
  744000      341.869   -128.37015   -510.20798   -14.090174   -461.89059   -401.02956 0.0012155093 0.0012607551 0.0012607217 
  746000    301.10797   -128.32442    39.675424   -605.95253    965.23333   -275.71782 0.0012117739 0.0012630194 0.0012581451 
  748000    293.72596   -127.37262    161.11252    558.24144    650.79251    88.151838 0.0012081081 0.0012615202 0.0012554674 
  750000    281.75764   -127.68856   -802.05016   -1310.5814   -513.31789   -409.49836 0.0012048922 0.0012604342 0.0012529792 
  752000    295.89614   -127.63248    127.69738    775.57649   -176.76289   -238.03006 0.0012023915 0.0012593586 0.0012495627 
  754000    358.21561   -127.97853    -592.0561   -40.596021   -1065.4387    1277.8257 0.0012003513 0.0012592835 0.0012484066 
  756000    319.36532   -127.96834   -308.70993    988.62552    261.09761   -255.86934 0.0011995604 0.0012576179 0.0012466073 
  758000    257.28012   -127.51061    738.36591    25.070172    744.51917   -503.63066 0.0012129764   0.00125548 0.0012522534 
  760000    309.51854   -127.24433     44.10488    24.000257    141.49474    -187.6402 0.0012254104 0.0012548975 0.0012552739 
  762000    247.75766   -127.48363    652.85574    1089.9395   -59.859504   -521.53547 0.0012376453 0.0012509764 0.0012627803 
  764000    309.79406   -127.79599   -28.510084    654.42796    21.156176    62.513049 0.0012429918  0.001248449 0.0012559589 
  766000     277.8524   -127.07837   -544.81221    157.21288   -405.68059   -576.12601 0.0012402532 0.0012452945  0.001257705 
  768000    320.58252   -126.81409    874.20903   -507.22794    576.37794   -729.61408 0.0012383441 0.0012458157 0.0012686475 
  770000    304.29832   -127.02902    200.45131    107.48613   -770.09121    740.09323 0.0012352115 0.0012523436 0.0012889494 
  772000    264.64898   -128.01204     376.5957   -304.44796    968.30589    345.87926 0.0012335801 0.0012511051 0.0012929286 
  774000    313.89376   -127.40656   -18.819172   -615.45502   -262.21087   -704.17864 0.0012307339 0.0012490974  0.001297131 
  776000    283.07597   -127.85399    -33.70996   -7.2789035    633.05042    47.559362 0.0012268933 0.0012460649 0.0013064977 
  778000    286.77758   -127.44048     1019.147    1009.5864    437.13352    214.95749 0.0012244259 0.0012427137 0.0013092547 
  780000    276.78092    -128.3758   -1118.2246   -680.44593    -456.5148   -410.23933 0.0012221513 0.0012396861 0.0013077554 
  782000    306.04689   -128.04126    257.90041   -485.66736    8.8163053    -501.1631 0.0012205084 0.0012402998 0.0013097018 
  784000    333.27928   -127.48937     351.0058    829.62918     1377.562   -747.93174 0.0012182696 0.0012362309 0.0013110504 
  786000    273.44565   -127.83195    205.87159   -180.17442    238.35711   -109.55956 0.0012161704 0.0012333567 0.0013053851 
  788000    304.50859   -127.99741    191.71885    372.01712   -391.99344   -276.22908 0.0012145223  0.001230225 0.0013028941 
  790000    308.35888   -127.37736    391.47213   -43.944117   -103.58101   -996.70485 0.0012112038 0.0012288841 0.0013034074 
  792000    299.37895   -127.53061    90.211402   -125.66891    472.44967   -238.40952 0.0012090766 0.0012276206 0.0013022656 
  794000    278.35667   -128.17773    830.21661    372.41096   -208.60373    553.38876 0.0012073876 0.0012231722 0.0012993733 
  796000    349.70851    -129.1939   -786.91353   -844.97457    -518.9935    302.91875 0.0012048355   0.00122028 0.0013012134 
  798000     293.5986   -127.10844    1235.9377    201.35238    449.00929    238.57814 0.0012014875 0.0012192364 0.0012948962 
  800000    315.41948   -128.57853    73.505814   -942.40353     344.7466   -346.82904 0.0012003862  0.001216657 0.0012940776 
  802000     272.9115   -127.49291    347.81897   -197.56409   -128.55817   -697.80036 0.0012043239 0.0012142794 0.0012925103 
  804000    312.63088   -128.03429    1018.2001    571.65855   -829.07493   -669.84665 0.0012075195 0.0012111458 0.0012891334 
  806000    280.84603   -128.41393   -1436.4192    280.51295   -432.09611    -421.6985 0.0012120659 0.0012084716 0.0012900114 
  808000    273.19271    -127.8996    455.21362   -80.374548    -97.99051   -938.02745 0.0012155384 0.0012074663 0.0012900471 
  810000    315.80896    -127.0953    568.88105    -704.9079   -61.409201   -1381.1693 0.0012194427 0.0012099472 0.0012866581 
  812000    280.24889   -126.43156    660.89873     180.8604   -521.81061   -734.84058 0.0012151841 0.0012237669  0.001284986 
  814000    288.64109   -127.88509     610.9405    507.83973   -740.51819   -41.040873 0.0012113917 0.0012309279 0.0012851178 
  816000    313.37819   -126.97848    1087.1433   -4.0036795    209.44556   -158.75272 0.0012083561 0.0012273845  0.001280876 
  818000    315.40573   -127.69937    238.90721    144.40755    200.62484   -563.91827 0.0012057342 0.0012267514 0.0012783211 
  820000    249.88244   -127.80454   -373.48998   -231.79331    919.29184    472.24041 0.0012033153  0.001228432 0.0012748312 
  822000    283.68111   -127.97576   -558.17576   -585.65152   -411.11683     518.0172 0.0012026461 0.0012264846 0.0012760998 
  824000    277.75926   -127.74666    224.79338   -747.11152     1220.699    985.78219 0.0012043615 0.0012278527 0.0012739948 
  826000    322.13408   -127.52472   -519.48183    4.1071305    571.78953   -86.989226 0.0012035298 0.0012396271 0.0012708512 
  828000    311.94677   -127.23819    829.91122   -752.70815    15.314609    348.18858 0.0012003572 0.0012436041 0.0012678114 
  830000    299.49444   -127.32999   -10.680349   -1183.0698   -33.328653   -587.63106 0.0011990155 0.0012403745 0.0012641007 
  832000    341.64974   -127.23943   -115.87082   -237.53201   -1028.5533   -1241.7284 0.0011960562 0.0012382679  0.001262673 
  834000    294.30933   -127.58239    12.931098    386.00038     392.9424    1330.8472 0.0011982368 0.0012400122 0.0012601092 
  836000    317.18016   -127.94019   -616.54096    586.65909    952.82451    -166.5361 0.0012056561 0.0012439027  0.001257368 
  838000    332.61179   -127.57094    195.53037    693.64413    440.06439     340.5307 0.0012067019  0.001240499 0.0012544247 
  840000    259.27132   -127.18753    623.72999   -762.06013    137.75432   -524.30501 0.0012045882 0.0012394649 0.0012515019 
  842000    301.38065   -127.83986    258.58501   -618.29258    -1148.405    411.19264 0.0012021368 0.0012387866 0.0012486782 
  844000    284.46104    -128.2878     435.2979     294.8332    149.46155    434.98801 0.0012022032 0.0012363783 0.0012494599 
  846000    303.22898   -127.17281   -580.26997   -521.22665   -35.069128   -53.507778  0.001209137 0.0012333503 0.0012457255 
  848000    279.37732   -127.42092    1119.7361    736.88146    31.158305    294.52044 0.0012048816 0.0012390869 0.0012428493 
  850000    253.75922   -127.42502   -415.86373    399.97064   -124.57398   -434.83578 0.0012025793 0.0012393236 0.0012398326 
  852000    265.34432    -127.3681    173.05808   -423.99715    705.82145   -19.416021 0.0012005966 0.0012370533 0.0012389972 
  854000    312.91488   -128.00822    574.37899    468.18164      213.925    214.55143 0.0011976221 0.0012377439 0.0012359707 
  856000    329.79175   -126.81035    237.67643    75.026412    1633.7732   -989.56946 0.0011978516 0.0012385344 0.0012331537 
  858000    318.83884   -127.55797    1322.4021    203.14258   -508.80694   -1131.8911 0.0011999131 0.0012390791 0.0012335397 
  860000    287.87024   -127.66689   -220.97201   -208.40099    207.82369   -972.06102 0.0011973541 0.0012373576  0.001232674 
  862000    277.44459   -127.18185    3.4605453    234.00923    14.147481    259.75433 0.0011973381 0.0012401999 0.0012303355 
  864000    300.74113   -127.86549   -233.17518    640.30342   -577.22834   -232.96238 0.0012015963 0.0012367968 0.0012286748 
  866000    336.94393   -127.25874   -395.54785   -291.83113    231.03777    411.11833  0.001197214 0.0012364191 0.0012257683 
  868000    292.54654    -127.8566    1309.3544    304.79956   -89.629663    353.39442 0.0011949948 0.0012422526 0.0012280966 
  870000    299.95465   -128.42238   -558.86661    278.85968   -230.61391   -288.48197 0.0011925774 0.0012411599  0.001226423 
  872000    307.28401    -127.0773    610.55631    206.63912    1695.6176    356.92851 0.0011908085 0.0012533845 0.0012340678 
  874000    336.89574   -128.62333     615.3795     332.6623   -329.45595   -544.44465 0.0011877998 0.0012552522  0.001237476 
  876000    285.09221   -128.02035   -509.47865   -639.62197    786.53937   -434.94251 0.0011847782 0.0012544313 0.0012375409 
  878000    306.28768   -127.68725    1027.9752   -605.07007   -71.574213    809.63638 0.0011824293  0.001253363 0.0012385175 
  880000    304.07084   -128.06944   -1981.0417    144.26305    937.85781    242.80371  0.001182641 0.0012503092 0.0012371654 
  882000    290.76759    -128.1015    679.87357   -347.50935    988.57175    720.32212 0.0011894122 0.0012507257 0.0012383249 
  884000    302.63549   -128.14094   -405.33282    384.72874    1022.6231   -460.94711 0.0011892252  0.001247976 0.0012386943 
  886000    276.09805    -127.5885    231.19849    168.05125   -290.59477    191.16227 0.0011863809  0.001246234  0.001237602 
  888000    291.53836   -126.92673    1985.6438   -355.83661    1335.3283   -4.2086869 0.0011841913 0.0012453457 0.0012341237 
  890000     339.9456   -127.04704    156.34727    714.60435    8.4566782   -222.93687 0.0011908849  0.001246377 0.0012317926 
  892000    267.36469   -127.00526    1391.0107   -365.24443    22.209306   -502.76948 0.0011903862 0.0012443057 0.0012279763 
  894000    275.45367    -128.0044   -845.22847   -376.22109    94.430942    845.29922 0.0011902113  0.001245532 0.0012300016 
  896000     323.2546   -127.96923    -170.2422   -117.96468   -8.0890511    928.01086 0.0011891683 0.0012451138 0.0012305663 
  898000    304.45726    -127.8159    1127.7043   -354.78744   -52.183267   -56.341215 0.0011871236 0.0012488878 0.0012275601 
  900000    328.65685   -127.78902   -859.48334   -566.34097    239.22074   -347.39842 0.0011846916 0.0012492902 0.0012248809 
  902000    300.78815   -126.67103    1388.8831   -1389.5921    141.04934    110.99246 0.0011825507 0.0012463281   0.00122202 
  904000    311.99535   -127.82107    -168.5486   -116.28305   -233.91419   -253.95742 0.0011839723 0.0012449456 0.0012199457 
  906000    278.19084   -127.45342   -175.59787   -665.63262    605.08535    447.66619 0.0011811259 0.0012411431 0.0012180055 
  908000    314.00892    -128.2864    851.46106   -1218.3655   -324.25055     944.1576 0.0011785223 0.0012398309 0.0012199405 
  910000    318.79073    -127.5784   -481.00163   -22.332306    1141.5566    -520.7423 0.0011803593 0.0012379073 0.0012173002 
  912000    285.79015   -128.11612    728.46788   -564.00513    7.8784833   -588.00281 0.0011844169 0.0012594473 0.0012159105 
  914000    287.67605    -128.2419   -637.81036   -455.31433    307.55877   -937.16902 0.0011862369 0.0012673497 0.0012163764 
  916000    327.25428   -127.00164    1003.2907    221.42521    340.22511   -785.13706 0.0012005303 0.0012654283 0.0012161121 
  918000    325.44091   -127.89154    760.27019   -210.66597   -154.67246    493.23933 0.0012028326  0.001262476 0.0012151979 
  920000    293.27723   -127.89063   -1570.2028    -1108.127    90.449514   -108.82142 0.0012053464 0.0012594756 0.0012118243 
  922000    300.36694   -128.51803    753.41147   -713.78288    343.93994    988.58437 0.0012027409 0.0012617322 0.0012095697 
  924000    302.88531   -128.08962   -768.64197   -266.75195    473.33809    396.98299 0.0012007026  0.001268626 0.0012070293 
  926000    298.80253   -127.75293    398.22491    52.050467    1007.1793    1370.3229 0.0011977388 0.0012665772 0.0012100053 
  928000    320.71059   -128.27123    778.13635    297.53774    767.30994    423.25986 0.0011965928 0.0012669753 0.0012051183 
  930000    287.05711   -127.96775   -1344.6116    424.68379    965.39293    184.09452 0.0011939102 0.0012736593 0.0012099776 
  932000    287.72141   -127.45212    1212.4955    180.00148    566.29695      494.639 0.0011920357 0.0012953923 0.0012147481 
  934000    329.01294   -128.39348   -678.71825   -487.29983    108.95566   -1123.4605 0.0011920921  0.001298548 0.0012205936 
  936000    327.68071   -129.37458    -521.9593   -86.264969    50.182749    100.26079 0.0011899313 0.0012991939  0.001221929 
  938000    277.77039   -127.00378    1681.2879    620.75893   -517.50109    658.09744 0.0011876914   0.00129633 0.0012216113 
[...]
 7710000    294.86645   -128.12075     2907.624    994.74043   -1366.1599    656.57432 0.0011448306 0.0011481548 0.0010834757 
 7712000    292.13997    -127.8028    113.27041   -1431.3497    -2724.464    462.01387 0.0011445662 0.0011477624 0.0010832187 
 7714000    266.82379   -128.44734   -1551.6367    1950.7907   -818.71362       2659.2 0.0011445839  0.001148006 0.0010830228 
 7716000    292.06747   -126.90901    4471.0348   -1082.6867   -2532.4769   -961.03316 0.0011453841 0.0011476516 0.0010826942 
 7718000    342.52105   -127.61725    -4201.708   -3194.3942    2842.1679   -2919.5468 0.0011458256 0.0011472372 0.0010832717 
 7720000    276.89679   -128.18838    1757.4264    1375.2412   -2028.7654   -1162.9579 0.0011457361  0.001147111 0.0010830105 
 7722000     309.1784   -128.08665   -3420.0741   -708.61001    2266.8474   -1187.5077  0.001145626 0.0011473895 0.0010827768 
 7724000    283.07251   -127.60681    -1349.813   -345.65302    1468.3166    894.55738  0.001145555  0.001147575 0.0010824828 
 7726000    342.12744   -127.62216    1174.9178    712.22811    2495.6963    3409.1007 0.0011455987 0.0011480191 0.0010823231 
 7728000    289.51397   -126.47017   -3692.7533    1279.2706    1524.1768     2067.903 0.0011454744 0.0011480151  0.001083442 
 7730000    307.59461   -128.06371    2649.5966    344.35418   -394.47338    2198.0303 0.0011451566 0.0011477631 0.0010842388 
 7732000    329.66467   -127.35792   -1555.7948    328.24493    173.06008    917.91303 0.0011448953 0.0011474477 0.0010842328 
 7734000    353.23532   -127.87352   -225.71622     584.7869   -1235.5729   -1973.1234 0.0011449349 0.0011472769 0.0010839488 
 7736000     280.0038    -127.3169    1541.0516   -1396.4923    84.668968   -464.45864 0.0011447807 0.0011481688 0.0010840042 
 7738000    290.35428   -127.48136    -3505.679    135.32839    1466.5329   -4059.8207 0.0011446088 0.0011490106 0.0010842374 
 7740000    267.41743    -126.9575    2779.3671    1365.7536    -2338.719   -3067.1899 0.0011443512 0.0011486025 0.0010837233 
 7742000    273.39079   -127.45353    -2423.864   -913.45617    1659.4103    -2207.495 0.0011441371 0.0011488172 0.0010834819 
 7744000    291.36952   -128.51974   -620.97304    2233.4903   -642.07351   -1205.7391  0.001144365 0.0011488214 0.0010833335 
 7746000    319.38026   -127.29991    1022.1821   -2597.7686   -184.81855    421.92978  0.001143928 0.0011484672 0.0010836326 
 7748000    281.39138   -127.21133   -3719.9026   -938.17957    851.71411    1754.9597 0.0011436593 0.0011484083 0.0010835216 
 7750000    306.70372     -127.225    2287.8718    812.20406   -3510.1318    3205.3961 0.0011433686 0.0011480471 0.0010840318 
 7752000    325.88713   -127.85708   -1284.3951    1072.1044   -1661.4216    498.61861 0.0011436297 0.0011480148 0.0010836993 
 7754000    307.69662   -127.65968   -97.489153    959.45141   -20.260788    3469.7585 0.0011436839 0.0011478062 0.0010835813 
 7756000    291.44289   -127.38979    2701.1718    2506.7601   -3722.5832   -2658.2007 0.0011433771 0.0011475963 0.0010832543 
 7758000    282.54704   -127.19607   -3150.4538    1736.5385    136.21139    -92.16865 0.0011433037 0.0011471822  0.001083024 
 7760000    297.09132   -126.94137    1413.7418   -2759.9439   -1826.7035    3001.2127  0.001143045 0.0011470226 0.0010828253 
 7762000    281.88341   -128.05173   -2263.6117   -641.63565   -1810.1683   -373.26977 0.0011428733 0.0011472098 0.0010825924 
 7764000    331.30308   -127.44866    -1678.203    786.57524    2770.0889   -1392.1069 0.0011428205 0.0011475625 0.0010826899 
 7766000    341.49307   -127.15414    39.830881   -1067.6091   -2010.9405    361.61889 0.0011424685 0.0011475129 0.0010829187 
 7768000    302.19092   -127.38649   -2350.9245    18.119408    2561.3832   -2410.1418 0.0011422536 0.0011472277 0.0010828392 
 7770000    301.62442   -126.51103    2506.7999    435.99631    3161.2572   -2549.8885 0.0011421521  0.001147037 0.0010830927 
 7772000     306.5591   -127.95443   -475.47916   0.65553371   -2244.4063    692.09786 0.0011420046 0.0011470031  0.001082918 
 7774000    284.03873   -126.98941    747.13828    -2328.359    5976.3908   -2730.4363 0.0011417948 0.0011473757 0.0010831939 
 7776000    276.14546   -127.22486    1337.5599    1198.3908   -5872.2802    1441.3752 0.0011417071 0.0011475776 0.0010828315 
 7778000    321.87871   -127.56163   -2029.0725    565.69947    -904.8751    1204.3318 0.0011419509 0.0011475958 0.0010826526 
 7780000    310.93836   -126.81021    2288.0397    2299.9949   -233.60072    361.16952 0.0011424842 0.0011474967 0.0010833995 
 7782000      333.924   -127.54427   -1685.3612    729.60937    -1929.359    1110.2563 0.0011424908 0.0011477052  0.001083524 
 7784000    276.96792   -127.63592     744.4431   -130.52718    1493.4486   -1370.1044 0.0011422452 0.0011475829 0.0010835017 
 7786000    292.55515   -128.20269     1249.293    2389.1265   -2432.0341    1690.7323 0.0011427754 0.0011473499 0.0010832586 
 7788000    317.82191   -127.13632   -1924.7299    -1181.705    4170.0932    878.16399 0.0011429231 0.0011471828 0.0010829833 
 7790000    289.21487   -128.37672    465.50347    492.43795   -2633.8248   -467.00971 0.0011424642 0.0011474806 0.0010826413 
 7792000    283.27959   -127.24818    -3163.191   -2369.2374    2027.5764    2562.2696 0.0011423016 0.0011475571 0.0010823339 
 7794000     308.1842   -128.22944   -1565.1483   -2748.6922   -1592.7021    -1229.762 0.0011421267 0.0011473574 0.0010823128 
 7796000     284.5361   -127.20631    324.27709    1936.2233   -7055.1956    729.05844 0.0011418248 0.0011473087 0.0010818894 
 7798000    305.39643   -127.31461   -2022.1166   -3993.2215    5783.9929   -3031.3768 0.0011415248 0.0011472189 0.0010815961 
 7800000    297.91798   -127.58248    1479.5338   -1116.3987   -7629.6694    1326.6186 0.0011411484 0.0011470465 0.0010813503 
 7802000    325.37633   -127.64935   -1007.6471    701.14498    1875.3144   -161.51066 0.0011408253 0.0011472604 0.0010811071 
 7804000    311.81746   -127.26471   -327.74167    2139.3187    -630.2629    1266.8447 0.0011405473 0.0011470811 0.0010808597 
 7806000      290.282    -128.3109    312.05284    4858.5432   -2236.3963    300.43623 0.0011402369 0.0011468485 0.0010805658 
 7808000    280.98558   -128.11923   -2251.1107    548.99126    5522.7516   -1650.0283 0.0011399328 0.0011469134 0.0010802811 
 7810000    260.49904   -128.20608    1008.4495    3015.3932   -1236.5576   -1175.2184 0.0011396026 0.0011467614 0.0010799651 
 7812000    302.45713    -127.1274    1014.6763    902.11342   -1402.7921   -2112.5629 0.0011392543 0.0011465284 0.0010797191 
 7814000    289.81502    -126.8855    -539.1145   -3084.3843    1102.4869   -701.37132 0.0011391232 0.0011462935 0.0010796579 
 7816000      314.959   -126.88973    1235.2805   -3281.0132    3017.2228    847.42406 0.0011393044 0.0011459997   0.00107984 
 7818000    315.19136   -127.30778   -1843.0758   -2859.6525     2161.274   -410.67004  0.001139429 0.0011458771 0.0010800266 
 7820000    342.96914   -127.68965    -1012.897   -1077.2508    -2303.011   -1008.3229 0.0011393177 0.0011457928 0.0010802907 
 7822000    291.71295   -127.48983    -1846.559   -1534.7999    2115.6911   -2427.1349 0.0011390129 0.0011453351  0.001080053 
 7824000     279.1527   -127.66572   -2945.8457    1879.1192   -3824.4062    953.49798  0.001138861 0.0011451323  0.001080109 
 7826000    273.82263   -127.38397   -997.37699    708.65863   -303.37751   -2186.4214 0.0011385651 0.0011448846 0.0010813343 
 7828000    316.51653   -127.48634   -596.04155   -973.76903    86.565275    1573.4373 0.0011382713 0.0011446227 0.0010810687 
 7830000    300.56189    -128.0931   -525.47533     2734.905   -2428.9269   -700.95597 0.0011380109  0.001145296 0.0010808981 
 7832000    276.91855   -128.13412   -8.9649745    266.77079    3042.2908   -5725.2197 0.0011378449 0.0011457777 0.0010808813 
 7834000    304.68511   -127.74241    49.468892    1796.1969   -1715.7912    1388.0247 0.0011379576 0.0011458717 0.0010805211 
 7836000     300.7262   -126.74101    2105.9392    -1628.714    2249.3678   -2512.7504 0.0011395719 0.0011459572 0.0010802795 
 7838000    294.60742   -127.26042   -525.88375     348.4412    2256.0945   -1483.3846 0.0011418363 0.0011465852 0.0010801027 
 7840000    255.00231   -127.74694   -188.11851    2187.9627    2995.8748   -328.26705 0.0011429224  0.001146223 0.0010798037 
 7842000    328.31904   -127.66202   -88.130565   -323.45127    1985.5823    168.47951  0.001143139 0.0011460638 0.0010794775 
 7844000    307.34719   -126.94483   -1549.5782    1742.4615    256.36532     1451.703 0.0011431748 0.0011459583 0.0010795337 
 7846000     334.1664   -127.63365    56.128586   -3014.6037    -4338.096   -2984.1516 0.0011435051 0.0011455614 0.0010792397 
 7848000    294.09827   -127.85255   -2536.1553   -2757.1032   -1785.6466    55.688808 0.0011431958 0.0011453953 0.0010789443 
 7850000    295.61947   -127.38813   -262.38365   -2349.4964   -3477.2163   -2607.4211 0.0011429145 0.0011450846 0.0010788394 
 7852000    311.38082    -127.7114     340.2682    481.57322    613.02005   -500.26828 0.0011428187  0.001144774 0.0010784993 
 7854000    295.47432   -126.70054   -2779.0978    5723.9082    1586.7536    339.11782 0.0011430025 0.0011458924 0.0010785257 
 7856000    291.18089   -127.60834    3307.9146   -366.71371   -1036.7099    1640.0675 0.0011427286 0.0011455663 0.0010786013 
 7858000    284.64947   -127.74426   -1491.8439    3958.0811    4739.6266    2341.6676 0.0011427377  0.001145941 0.0010782536 
 7860000    292.06674   -127.72847    1523.9194   -276.14891    207.51483    1775.5986 0.0011425834 0.0011465816 0.0010779217 
 7862000    314.06184   -127.10929    1470.7814   -836.42108     344.6214    1878.0306 0.0011426695 0.0011464728 0.0010776139 
 7864000    331.16044   -127.77402   -4137.2984    1515.4992   -717.88638   -1537.9071 0.0011432648 0.0011464615 0.0010773365 
 7866000    289.75174    -127.8031    584.57746    1001.6924   -768.19279    49.667867 0.0011442343 0.0011460929 0.0010770055 
 7868000    300.98082   -127.08202   -3508.7481   -1791.1154   -1335.6796   -388.92354 0.0011440979 0.0011458081 0.0010768961 
 7870000    288.53113   -127.62649    122.20896    813.34117   -909.24376    404.73979 0.0011444299 0.0011460038 0.0010769434 
 7872000     278.4705   -127.10159    12.664703   -2414.9699   -2089.2192    1599.3426 0.0011441365 0.0011458261 0.0010768142 
 7874000    319.05975    -126.7817   -1067.1252    2079.0965   -1870.9593   -1360.8513 0.0011438057 0.0011455214 0.0010769884 
 7876000    282.59908     -127.665    2500.4114   -2038.9477   -172.19896    -669.1492 0.0011437712 0.0011454013 0.0010771793 
 7878000    265.01282   -128.02477   -3319.5899   -953.71566   -1802.6113   -1213.0766  0.001143334 0.0011449784  0.001076975 
 7880000    306.54894   -127.87329    730.44222    -2376.734    5777.2252    1378.8246 0.0011428816 0.0011447123  0.001076676 
 7882000    304.20695   -127.92837   -1886.0293   -3309.9607    872.87815   -59.425978 0.0011437472 0.0011444614 0.0010763746 
 7884000     313.9502      -127.07   -2334.6407    9.5069024    1206.3205    2910.6931 0.0011443858 0.0011442726 0.0010760868 
 7886000    272.89809   -127.49084    2976.3429    162.26144   -2124.0994    310.01877 0.0011449314 0.0011446071 0.0010758293 
 7888000    253.70582   -127.70279   -3955.7577    1360.6013    832.09773   -3543.7676 0.0011445222 0.0011442171 0.0010755853 
 7890000    256.92036   -128.01289     2643.966    1032.2778   -6.2987464     109.5957 0.0011443592 0.0011439695 0.0010753534 
 7892000    283.61692   -127.83888   -1257.1887    2761.6365   -3397.5537   -5170.1174 0.0011444292  0.001143657 0.0010753181 
 7894000    275.12238   -127.79774   -1277.6435    1481.1791    2039.8973   -958.86557 0.0011441139 0.0011433652 0.0010750462 
 7896000    378.00009   -127.21208    4611.1869   -230.40344    1234.1281    2091.4299 0.0011439419 0.0011433976 0.0010751592 
 7898000    306.02252   -127.19577   -5877.8922    1919.7107    2678.3528   -1547.4773 0.0011445797 0.0011430194 0.0010750264 
 7900000       303.87   -127.44628    3734.1353   -1364.2518    5272.6835    5206.7444 0.0011443414 0.0011425753 0.0010747307 
 7902000    274.29059   -127.77689   -2672.0129    860.58362    1167.0389    -1801.847 0.0011441536 0.0011422252 0.0010749303 
 7904000    274.64751   -128.30167   -2537.5786     1997.355   -410.47457    996.11337  0.001143829  0.001142093 0.0010748688 
 7906000    297.15149   -127.99574    3935.3285   -510.86543   -275.52482    -1019.721  0.001143719 0.0011418195 0.0010746058 
 7908000    307.40645   -127.62954   -5832.9306   -523.06289   -1709.4826    1330.0176 0.0011434555 0.0011415241 0.0010746134 
 7910000    280.17464   -127.61994    3915.0822   -850.91467    2381.8538    2246.6072 0.0011432622 0.0011414219 0.0010743537 
 7912000    293.94986   -128.41946   -3527.1566     3103.193    -1139.652   -494.33753 0.0011429591 0.0011411684 0.0010742031 
 7914000    315.27174   -126.61428   -2970.2535   -646.26184   -354.13819    -492.3957  0.001143055 0.0011408891 0.0010740628 
 7916000    270.74028   -128.01066    2451.5442    1972.1097    -2203.962    -3107.668 0.0011427314  0.001141262  0.001073874 
 7918000    287.99362   -128.62418   -5317.3673     2603.676   -2403.8705   -963.89611 0.0011424057 0.0011412444 0.0010735325 
 7920000    346.57028   -127.85554    4879.8509   -1344.0566    2759.4618    -2008.697 0.0011422368 0.0011410459  0.001073201 
 7922000    317.17263   -127.22466    -109.6005      656.423    -4671.251   -1471.3241  0.001141945 0.0011407247 0.0010729296 
 7924000    284.96707    -126.8855    188.68858   -530.07168    3765.7597   -704.79894 0.0011416562 0.0011410639 0.0010726481 
 7926000    309.15244   -127.62406    2621.4376   -368.37529   -870.46432   -1734.6643 0.0011415481 0.0011408965 0.0010724185 
 7928000    306.84694   -128.48423   -5710.7542   -4837.8687   -24.600409    4290.2865 0.0011410352 0.0011406633 0.0010721097 
 7930000    287.89655   -128.45269    904.18006   -1388.1121    1610.1757    2066.6229 0.0011406901 0.0011404761 0.0010719512 
 7932000    338.91037   -127.63245    -2868.498   -2073.4275   -1603.2681   -992.91931 0.0011403746 0.0011401503 0.0010718781 
 7934000    312.30964   -128.20694   -1568.2102   -2128.9681    5652.4744    4106.1736 0.0011401057 0.0011398577 0.0010722064 
 7936000    301.42887   -127.93567     1756.112    653.82232   -813.61083   -401.41332 0.0011395837 0.0011397749 0.0010720721 
 7938000    318.30688   -127.34945   -2327.6886   -2679.6671    3479.1206    671.19933 0.0011396459 0.0011397167 0.0010718397 
 7940000    308.65349   -127.67826    3047.7973   -755.79182    3461.0494   -2870.5146 0.0011394728 0.0011402091 0.0010715221 
 7942000    305.24981    -126.2878   -1818.4065   -1242.9743   -3921.8517   -1885.2056 0.0011391785  0.001140316  0.001071193 
 7944000    290.63371     -128.028   0.35412143    2261.0683    2389.1219   -2109.2531 0.0011393019 0.0011405519 0.0010716163 
 7946000    306.29378   -127.24321    1657.5167   -1581.7777   -5298.7273    514.16993 0.0011391505 0.0011405944 0.0010715948 
 7948000    309.87474   -127.60407   -3012.0874   -3218.4192    321.75978    2842.3732 0.0011390899 0.0011403644 0.0010712996 
 7950000    255.36887   -127.61905    3624.6122    5444.4926    3561.4591    3621.9486 0.0011392075 0.0011401032 0.0010712742 
 7952000    273.17981   -128.00765   -3238.7174   -2110.9379   -5248.9932      1536.51 0.0011390212 0.0011399319 0.0010718668 
 7954000    307.35213    -127.8741   -911.62158    1212.3667    793.31798    4033.9357 0.0011387888 0.0011396205 0.0010723379 
 7956000    299.86683   -127.67087   -48.734664   -289.25794   -624.70104   -2762.4518 0.0011384576 0.0011393379 0.0010720558 
 7958000     325.8247   -128.27978   -3985.1953   -1590.2152    967.04319    483.93676 0.0011386682 0.0011390848 0.0010719179 
 7960000    260.85135   -128.01621    3061.1588    1236.7554    70.390626    2411.1631 0.0011384796 0.0011387837 0.0010722445 
 7962000    313.93486   -127.95122   -1399.8493   -2227.2009   -1014.2826   -4136.9565 0.0011383007 0.0011385329 0.0010724647 
 7964000    305.89649   -127.82109    2123.5121    1406.5787   -1177.3235    947.25676 0.0011379772 0.0011382951 0.0010724475 
 7966000    293.46821   -127.57594    868.04225    242.05777    626.44544   -1862.0875 0.0011378242 0.0011381425 0.0010725857 
 7968000      334.031   -127.96889   -3781.2575    1276.1478    635.75121   -2130.1536 0.0011380994 0.0011377693 0.0010724235 
 7970000     292.2639   -127.23825    1737.7457    5555.2419    5009.4705    1759.6994 0.0011376967 0.0011374719 0.0010721639 
 7972000    302.08744   -127.87895   -3678.7293   -1319.6666   -545.81842    310.04519 0.0011374349 0.0011374436 0.0010718313 
 7974000    287.93879   -127.71682    630.03329   -412.62047   -895.29547    3663.4683 0.0011371882 0.0011373344  0.001071662 
 7976000     292.4081   -127.82743     674.6065   -3308.9675    217.71897   -782.02091 0.0011370102 0.0011370859  0.001071392 
 7978000    314.92763   -127.63119   -2043.2857    2221.8982   -1882.9304    1048.6708 0.0011368529 0.0011369267 0.0010711156 
 7980000    315.45325   -128.20425    2786.7407   -1077.3884    1388.5285   -823.84446 0.0011366527 0.0011371345 0.0010711341 
 7982000     290.4763   -126.68134   -3810.1469   -544.41427    2728.9761   -820.87049  0.001136363 0.0011368097 0.0010709321 
 7984000    309.61454   -127.47326    1237.9272    1.0770206    1403.6405    2877.0505 0.0011362296 0.0011366231  0.001070856 
 7986000    266.34024   -127.69959    913.02635   -4499.5233    421.63578   -4623.8848 0.0011362273  0.001136589 0.0010705784 
 7988000    325.59776   -127.11721   -504.75184    2157.1394    622.11311    -1450.547 0.0011358854 0.0011364062 0.0010704727 
 7990000    314.09534   -127.84381    4879.9212    1400.7466   -4957.8154   -217.72003 0.0011355996  0.001136102  0.001070202 
 7992000    333.57606   -127.41607   -757.51499    3428.1657    398.82539   -2494.5169 0.0011355152 0.0011359147 0.0010699953 
 7994000    277.31011   -127.41654    905.92226    3407.2331   -2092.2961    7766.9238  0.001135185 0.0011356376  0.001069731 
 7996000    294.43941   -127.50315   -1983.6684    1079.5707    3132.8004   -29.875783 0.0011350149 0.0011354284 0.0010696534 
 7998000    306.32381     -127.236    -2828.912    896.60174    4492.7305    1239.1784 0.0011346619 0.0011355277 0.0010693992 
 8000000    294.40288   -127.63877    762.57372   -2501.8269   -1078.7936    98.566234  0.001134464 0.0011354191 0.0010692632 
Loop time of 8254.1 on 1 procs for 8000000 steps with 160 atoms

Performance: 83.740 ns/day, 0.287 hours/ns, 969.215 timesteps/s
98.8% CPU use with 1 MPI tasks x no OpenMP threads

MPI task timing breakdown:
Section |  min time  |  avg time  |  max time  |%varavg| %total
---------------------------------------------------------------
Pair    | 6891.2     | 6891.2     | 6891.2     |   0.0 | 83.49
Bond    | 48.62      | 48.62      | 48.62      |   0.0 |  0.59
Kspace  | 976.98     | 976.98     | 976.98     |   0.0 | 11.84
Neigh   | 108.4      | 108.4      | 108.4      |   0.0 |  1.31
Comm    | 137.4      | 137.4      | 137.4      |   0.0 |  1.66
Output  | 1.5276     | 1.5276     | 1.5276     |   0.0 |  0.02
Modify  | 58.68      | 58.68      | 58.68      |   0.0 |  0.71
Other   |            | 31.28      |            |       |  0.38

Nlocal:    160 ave 160 max 160 min
Histogram: 1 0 0 0 0 0 0 0 0 0
Nghost:    3409 ave 3409 max 3409 min
Histogram: 1 0 0 0 0 0 0 0 0 0
Neighs:    39431 ave 39431 max 39431 min
Histogram: 1 0 0 0 0 0 0 0 0 0

Total # of neighbors = 39431
Ave neighs/atom = 246.444
Ave special neighs/atom = 1.5
Neighbor list builds = 86925
Dangerous builds = 0
variable     ndens equal count(all)/vol
print        "average viscosity: $v [Pa.s] @ $T K, ${ndens} /A^3"
average viscosity: 0.00111304873800873 [Pa.s] @ 300 K, 0.0147094139492742 /A^3
Total wall time: 2:22:30
