ITEM: TIMESTEP
0
ITEM: NUMBER OF ATOMS
160
ITEM: BOX BOUNDS pp pp pp
-4.0000000000000000e+01 4.0000000000000000e+01
-4.0000000000000000e+01 4.0000000000000000e+01
-4.0000000000000000e+01 4.0000000000000000e+01
ITEM: ATOMS id type xs ys zs
98 2 0.00299247 0.0883883 0.0175527
99 3 0.0179035 0.11329 0.00058185
100 4 0.99108 0.0773171 0.0519097
39 1 0.29805 0.333081 0.0884802
80 2 0.725887 0.309483 0.0806
81 3 0.73524 0.280209 0.0942379
82 4 0.696421 0.328868 0.0664257
50 2 0.848356 0.30866 0.0314125
51 3 0.838086 0.334951 0.0131433
132 3 0.873738 0.328992 0.120901
52 4 0.878082 0.293505 0.0496217
15 1 0.364937 0.496819 0.0348902
23 1 0.63364 0.582079 0.00409495
60 3 0.13998 0.735938 0.0157358
59 2 0.112134 0.751997 0.00588152
56 2 0.144856 0.846434 0.0593294
57 3 0.15472 0.814492 0.0629135
58 4 0.141284 0.874991 0.0344971
17 1 0.431355 0.791284 0.103002
78 3 0.522614 0.777273 0.0122569
26 1 0.357405 0.913138 0.112538
4 1 0.488481 0.892784 0.0179386
34 1 0.628785 0.987327 0.00927379
142 4 0.0967782 0.00275616 0.241861
9 1 0.863633 0.084562 0.232954
121 4 0.75865 0.0967065 0.240677
119 2 0.744172 0.131267 0.234287
120 3 0.750013 0.161013 0.219744
20 1 0.859424 0.338856 0.156199
131 2 0.8404 0.329465 0.12523
133 4 0.811832 0.315624 0.146139
37 1 0.162787 0.96336 0.183418
27 1 0.429111 0.0740927 0.275182
53 2 0.613718 0.0772871 0.37238
55 4 0.58271 0.0712591 0.351237
36 1 0.0174465 0.223674 0.292031
6 1 0.798259 0.340175 0.31557
31 1 0.481137 0.471254 0.360432
70 4 0.441306 0.490154 0.271363
68 2 0.432802 0.519741 0.293661
69 3 0.445792 0.54558 0.310808
3 1 0.0397857 0.678721 0.257184
104 2 0.134729 0.682719 0.374256
105 3 0.145266 0.669967 0.344985
140 2 0.0948596 0.972871 0.265272
141 3 0.109483 0.957841 0.291554
149 2 0.279643 0.941197 0.321379
150 3 0.306386 0.961545 0.322477
151 4 0.268604 0.904895 0.319091
115 4 0.730209 0.881039 0.266854
113 2 0.754837 0.905535 0.251418
114 3 0.785418 0.91913 0.254643
54 3 0.644782 0.0662514 0.378986
145 4 0.499636 0.146076 0.473989
143 2 0.508948 0.182715 0.477958
144 3 0.530449 0.206606 0.468092
122 2 0.982826 0.216061 0.431566
123 3 0.995649 0.226955 0.402457
124 4 0.966942 0.186263 0.449021
125 2 0.0396302 0.275381 0.440134
126 3 0.0607317 0.299671 0.430379
127 4 0.01821 0.262893 0.468946
44 2 0.534171 0.346608 0.459922
45 3 0.563423 0.345317 0.443395
46 4 0.506084 0.32559 0.474559
91 4 0.522728 0.359471 0.446707
71 2 0.701871 0.361469 0.449886
72 3 0.735429 0.359605 0.450803
73 4 0.669743 0.342135 0.456121
90 3 0.482759 0.407473 0.419388
89 2 0.509129 0.387294 0.424666
116 2 0.124922 0.603641 0.44208
118 4 0.120698 0.568104 0.429266
18 1 0.160565 0.617741 0.375166
117 3 0.130758 0.622231 0.46948
7 1 0.776972 0.568598 0.431206
106 4 0.116746 0.674572 0.406738
148 4 0.548761 0.639246 0.481199
108 3 0.135902 0.78286 0.493361
2 1 0.591177 0.908098 0.40531
14 1 0.553819 0.0321067 0.617384
32 1 0.786761 0.0922006 0.615291
38 1 0.712152 0.142357 0.588225
1 1 0.0104873 0.260636 0.511132
137 2 0.325581 0.347064 0.544542
138 3 0.339169 0.370636 0.564294
139 4 0.323471 0.309649 0.538174
28 1 0.989603 0.26272 0.530104
10 1 0.251409 0.439138 0.595397
16 1 0.399083 0.390522 0.507552
29 1 0.451157 0.58818 0.540849
109 4 0.0855725 0.748936 0.524413
146 2 0.524306 0.637377 0.51024
147 3 0.518527 0.647667 0.541723
107 2 0.105134 0.774119 0.503724
74 2 0.298917 0.11498 0.704987
76 4 0.294408 0.079536 0.71796
101 2 0.413852 0.109778 0.698537
103 4 0.422102 0.072864 0.702304
75 3 0.319529 0.141542 0.704834
86 2 0.444808 0.178374 0.634025
87 3 0.422586 0.203356 0.630486
88 4 0.477792 0.168512 0.650139
102 3 0.39855 0.135923 0.713123
30 1 0.0520779 0.273558 0.686766
5 1 0.493564 0.326628 0.638591
11 1 0.829913 0.345373 0.687012
92 2 0.277937 0.587527 0.65441
93 3 0.309733 0.595064 0.646498
94 4 0.255296 0.56055 0.668714
155 2 0.271691 0.58051 0.661922
156 3 0.257378 0.553198 0.64852
157 4 0.285696 0.614966 0.654079
128 2 0.0904339 0.731014 0.694762
129 3 0.057641 0.729976 0.702109
66 3 0.23798 0.638342 0.635668
130 4 0.125334 0.725189 0.708652
65 2 0.259941 0.641416 0.660939
67 4 0.286154 0.664193 0.6764
21 1 0.235144 0.060679 0.831231
160 4 0.886504 0.0251103 0.859967
8 1 0.275435 0.228701 0.784903
62 2 0.485156 0.156311 0.870591
63 3 0.454442 0.160673 0.857628
134 2 0.622233 0.167158 0.825774
136 4 0.62056 0.138216 0.801188
135 3 0.637702 0.178679 0.853313
110 2 0.945717 0.152185 0.811521
111 3 0.92221 0.148359 0.787789
112 4 0.956817 0.173868 0.840702
12 1 0.602448 0.349725 0.833863
42 3 0.028713 0.460368 0.862887
152 2 0.739896 0.499392 0.783291
153 3 0.74201 0.465915 0.781001
25 1 0.289612 0.515372 0.861508
83 2 0.631996 0.622738 0.810175
85 4 0.635804 0.586391 0.799718
154 4 0.756893 0.532066 0.773889
40 1 0.0870299 0.711357 0.772531
84 3 0.64812 0.64917 0.823281
24 1 0.823761 0.947507 0.750478
158 2 0.897623 0.990907 0.847663
159 3 0.922779 0.968606 0.848158
19 1 0.415072 0.119649 0.933293
22 1 0.504141 0.10043 0.928758
64 4 0.506433 0.133699 0.892521
41 2 0.0236783 0.461091 0.896122
43 4 0.00266719 0.44688 0.924432
95 2 0.481351 0.462875 0.878914
96 3 0.457019 0.485986 0.87684
97 4 0.490759 0.429294 0.894035
33 1 0.188233 0.624257 0.885145
13 1 0.735681 0.590051 0.990097
61 4 0.0769895 0.747206 0.992213
77 2 0.533518 0.788949 0.982673
79 4 0.556194 0.781547 0.953077
47 2 0.324428 0.932071 0.949445
48 3 0.321096 0.938389 0.91659
49 4 0.313351 0.942823 0.98418
35 1 0.864578 0.959123 0.984769
ITEM: TIMESTEP
100
ITEM: NUMBER OF ATOMS
160
ITEM: BOX BOUNDS pp pp pp
-4.0000000000000000e+01 4.0000000000000000e+01
-4.0000000000000000e+01 4.0000000000000000e+01
-4.0000000000000000e+01 4.0000000000000000e+01
ITEM: ATOMS id type xs ys zs
98 2 0.00314283 0.0882617 0.0177822
99 3 0.0181542 0.113151 0.00088462
100 4 0.991008 0.0771737 0.0521707
39 1 0.297554 0.332531 0.0893677
80 2 0.724961 0.309634 0.080863
81 3 0.734181 0.280229 0.0943046
82 4 0.695599 0.329146 0.0663748
50 2 0.848793 0.308917 0.0312054
51 3 0.838614 0.335181 0.012849
132 3 0.871824 0.334462 0.127258
52 4 0.878578 0.293618 0.0494143
15 1 0.366025 0.497528 0.0349304
23 1 0.631347 0.581566 0.00292647
60 3 0.139945 0.734616 0.0151857
59 2 0.112232 0.750924 0.00536763
56 2 0.145532 0.847227 0.0600347
57 3 0.155477 0.815336 0.0638393
58 4 0.141602 0.875586 0.0348742
17 1 0.431588 0.788556 0.1029
78 3 0.521814 0.778447 0.0131746
26 1 0.354082 0.913854 0.112552
4 1 0.489232 0.890301 0.0150422
34 1 0.630811 0.98805 0.00938049
142 4 0.0976321 0.00294162 0.240654
9 1 0.860723 0.0847352 0.232535
121 4 0.759903 0.09636 0.240555
119 2 0.745097 0.130919 0.234293
120 3 0.750693 0.160777 0.219887
20 1 0.865621 0.33639 0.148996
131 2 0.839797 0.324418 0.125977
133 4 0.808542 0.317943 0.146797
37 1 0.159362 0.96287 0.186694
27 1 0.429406 0.0746489 0.277675
53 2 0.613597 0.0764493 0.372519
55 4 0.582673 0.070505 0.351044
36 1 0.0175776 0.223403 0.293942
6 1 0.7963 0.33946 0.315897
31 1 0.480252 0.469982 0.360242
70 4 0.441774 0.489707 0.271487
68 2 0.433513 0.518719 0.294785
69 3 0.446459 0.545068 0.311169
3 1 0.0409815 0.679673 0.258564
104 2 0.141576 0.671513 0.375407
105 3 0.145716 0.663792 0.342982
140 2 0.0957453 0.972749 0.26384
141 3 0.109663 0.958091 0.290706
149 2 0.28024 0.941506 0.3204
150 3 0.307013 0.961802 0.321695
151 4 0.269114 0.905103 0.31845
115 4 0.729944 0.880919 0.266807
113 2 0.754674 0.905405 0.251264
114 3 0.785241 0.919029 0.2545
54 3 0.644678 0.0655005 0.379186
145 4 0.499708 0.145341 0.473957
143 2 0.509186 0.182028 0.478076
144 3 0.530739 0.205889 0.468255
122 2 0.983758 0.216848 0.433119
123 3 0.995054 0.227569 0.403322
124 4 0.966974 0.187772 0.451165
125 2 0.0390192 0.272769 0.448816
126 3 0.0570749 0.298025 0.43591
127 4 0.0100992 0.264114 0.472023
44 2 0.533689 0.347259 0.458552
45 3 0.564115 0.345502 0.44435
46 4 0.50621 0.326882 0.475364
91 4 0.519872 0.360121 0.446683
71 2 0.703182 0.361585 0.449785
72 3 0.736742 0.359734 0.450587
73 4 0.670994 0.342214 0.456223
90 3 0.482058 0.409351 0.418251
89 2 0.508025 0.389041 0.424867
116 2 0.127871 0.603436 0.438788
118 4 0.12099 0.568201 0.425985
18 1 0.147899 0.637454 0.384735
117 3 0.130925 0.622259 0.466479
7 1 0.776473 0.568535 0.431836
106 4 0.117234 0.67011 0.40466
148 4 0.54798 0.638786 0.481417
108 3 0.135548 0.783348 0.493269
2 1 0.591379 0.909035 0.404965
14 1 0.550321 0.0337166 0.617452
32 1 0.788852 0.0909793 0.61578
38 1 0.708612 0.14477 0.586373
1 1 0.0210269 0.261646 0.494265
137 2 0.326828 0.348469 0.543718
138 3 0.339856 0.371982 0.563911
139 4 0.323432 0.310911 0.538179
28 1 0.991145 0.262001 0.521585
10 1 0.252663 0.442111 0.595551
16 1 0.397995 0.386885 0.507973
29 1 0.453668 0.591773 0.540663
109 4 0.0850957 0.749377 0.524287
146 2 0.523379 0.636313 0.510425
147 3 0.517161 0.646531 0.541846
107 2 0.104766 0.774656 0.503628
74 2 0.296989 0.115515 0.706573
76 4 0.293303 0.0796949 0.719067
101 2 0.414524 0.109265 0.699534
103 4 0.422718 0.0721876 0.70284
75 3 0.317327 0.142283 0.706138
86 2 0.445712 0.179355 0.633799
87 3 0.423434 0.20434 0.63067
88 4 0.478697 0.169196 0.649973
102 3 0.399255 0.135249 0.714436
30 1 0.0526294 0.27337 0.688769
5 1 0.49281 0.324532 0.636457
11 1 0.829027 0.346961 0.688457
92 2 0.280768 0.598101 0.650125
93 3 0.311975 0.606992 0.641883
94 4 0.25775 0.568212 0.656019
155 2 0.261723 0.584374 0.670643
156 3 0.253801 0.554287 0.658203
157 4 0.283387 0.615112 0.665079
128 2 0.0896038 0.730371 0.700081
129 3 0.0567097 0.728837 0.706845
66 3 0.239946 0.625936 0.635339
130 4 0.124419 0.724032 0.714228
65 2 0.265514 0.626517 0.657006
67 4 0.28907 0.649393 0.676107
21 1 0.23541 0.0589905 0.829264
160 4 0.885495 0.0244274 0.859844
8 1 0.277201 0.227018 0.781934
62 2 0.484956 0.152895 0.8771
63 3 0.455047 0.157397 0.862209
134 2 0.622297 0.167028 0.825816
136 4 0.620793 0.137977 0.801189
135 3 0.637621 0.178617 0.853407
110 2 0.945833 0.152654 0.810453
111 3 0.922127 0.148764 0.786931
112 4 0.956884 0.17412 0.839946
12 1 0.602674 0.350044 0.834088
42 3 0.0291215 0.460359 0.862773
152 2 0.740128 0.498798 0.783325
153 3 0.742149 0.465329 0.780846
25 1 0.290535 0.51572 0.858249
83 2 0.6319 0.622982 0.810981
85 4 0.635612 0.586607 0.800218
154 4 0.757154 0.531574 0.773912
40 1 0.0886376 0.715105 0.757068
84 3 0.648183 0.649366 0.823986
24 1 0.82599 0.947433 0.752561
158 2 0.896622 0.99012 0.847517
159 3 0.921845 0.967893 0.847844
19 1 0.416431 0.121488 0.928899
22 1 0.502798 0.111574 0.9157
64 4 0.505877 0.128405 0.897623
41 2 0.0241503 0.461104 0.896016
43 4 0.00301665 0.447011 0.924433
95 2 0.480964 0.462713 0.879459
96 3 0.456491 0.485686 0.87755
97 4 0.490605 0.428986 0.89437
33 1 0.186781 0.626232 0.884406
13 1 0.738663 0.589538 0.988333
61 4 0.0768474 0.74643 0.991931
77 2 0.533128 0.790098 0.983736
79 4 0.555693 0.782305 0.954023
47 2 0.325441 0.932637 0.950083
48 3 0.321689 0.938841 0.917253
49 4 0.31425 0.943081 0.98499
35 1 0.866875 0.960501 0.983672
ITEM: TIMESTEP
200
ITEM: NUMBER OF ATOMS
160
ITEM: BOX BOUNDS pp pp pp
-4.0000000000000000e+01 4.0000000000000000e+01
-4.0000000000000000e+01 4.0000000000000000e+01
-4.0000000000000000e+01 4.0000000000000000e+01
ITEM: ATOMS id type xs ys zs
98 2 0.00324295 0.0881471 0.0180023
99 3 0.018345 0.113026 0.00115971
100 4 0.990959 0.0770771 0.0523405
39 1 0.297144 0.332104 0.0901046
80 2 0.724155 0.309761 0.0809919
81 3 0.733265 0.280244 0.0942748
82 4 0.694939 0.32935 0.0663186
50 2 0.849269 0.309185 0.0312507
51 3 0.839157 0.335362 0.0127225
132 3 0.870855 0.334885 0.130288
52 4 0.87904 0.293876 0.0494677
15 1 0.366903 0.498123 0.0349442
23 1 0.629532 0.581158 0.00191968
60 3 0.139908 0.733544 0.014739
59 2 0.112296 0.750049 0.00494859
56 2 0.146111 0.847918 0.0606126
57 3 0.156092 0.816055 0.0645978
58 4 0.141872 0.876032 0.0352331
17 1 0.431801 0.786439 0.102787
78 3 0.521103 0.779502 0.0139235
26 1 0.351369 0.914405 0.112443
4 1 0.489918 0.888045 0.0126153
34 1 0.632354 0.988748 0.00945278
142 4 0.0984731 0.00300825 0.239557
9 1 0.858016 0.0849736 0.232181
121 4 0.761058 0.0960964 0.240437
119 2 0.745963 0.130552 0.234319
120 3 0.751305 0.160517 0.220025
20 1 0.868983 0.336261 0.143489
131 2 0.838979 0.324467 0.127854
133 4 0.807088 0.317693 0.147596
37 1 0.156209 0.96263 0.189863
27 1 0.429692 0.0750868 0.279682
53 2 0.613454 0.0757313 0.372633
55 4 0.582681 0.0698711 0.350925
36 1 0.017576 0.223117 0.295292
6 1 0.794632 0.33888 0.316032
31 1 0.47949 0.46895 0.360154
70 4 0.442147 0.489363 0.271625
68 2 0.434218 0.517718 0.295826
69 3 0.447 0.544612 0.311446
3 1 0.0420795 0.680309 0.259561
104 2 0.143848 0.663254 0.376635
105 3 0.145928 0.661815 0.343101
140 2 0.0967455 0.972548 0.262397
141 3 0.109829 0.958321 0.289913
149 2 0.280711 0.941739 0.319604
150 3 0.307506 0.962003 0.321064
151 4 0.269545 0.905337 0.317935
115 4 0.729773 0.880856 0.266761
113 2 0.754524 0.905279 0.251158
114 3 0.785083 0.918931 0.254396
54 3 0.644559 0.0648637 0.379349
145 4 0.499778 0.144781 0.473948
143 2 0.509367 0.181422 0.478197
144 3 0.530967 0.205266 0.468418
122 2 0.985182 0.218002 0.434948
123 3 0.995204 0.228806 0.40472
124 4 0.9675 0.189688 0.453335
125 2 0.0334773 0.272175 0.454552
126 3 0.0528302 0.295499 0.440007
127 4 0.00741711 0.266284 0.481726
44 2 0.533059 0.347923 0.457046
45 3 0.564348 0.346291 0.44482
46 4 0.506139 0.328478 0.475741
91 4 0.517383 0.360285 0.447127
71 2 0.704231 0.361661 0.449692
72 3 0.7378 0.359831 0.45039
73 4 0.67208 0.342292 0.456298
90 3 0.482006 0.41053 0.417372
89 2 0.507346 0.389921 0.425375
116 2 0.129555 0.609617 0.430737
118 4 0.122643 0.574243 0.418306
18 1 0.135808 0.639154 0.403443
117 3 0.132773 0.628466 0.45841
7 1 0.776013 0.56843 0.432348
106 4 0.120464 0.658776 0.406362
148 4 0.54705 0.638298 0.481792
108 3 0.135229 0.783665 0.493173
2 1 0.591574 0.909855 0.404636
14 1 0.547424 0.0351191 0.617533
32 1 0.790668 0.0900174 0.616224
38 1 0.705673 0.146826 0.584777
1 1 0.0305481 0.25872 0.487542
137 2 0.328437 0.349595 0.542772
138 3 0.340548 0.373134 0.563506
139 4 0.323465 0.312095 0.538129
28 1 0.992238 0.261733 0.50101
10 1 0.253656 0.444738 0.595692
16 1 0.396425 0.383782 0.508677
29 1 0.456639 0.595176 0.540137
109 4 0.0847464 0.749708 0.524161
146 2 0.522351 0.635261 0.510657
147 3 0.515694 0.64538 0.542027
107 2 0.104434 0.774985 0.503521
74 2 0.295413 0.115983 0.707974
76 4 0.292411 0.0799418 0.719994
101 2 0.415089 0.108828 0.700382
103 4 0.423212 0.0717053 0.703293
75 3 0.315536 0.142916 0.707295
86 2 0.446479 0.180171 0.633654
87 3 0.424158 0.205164 0.63086
88 4 0.479386 0.169786 0.649836
102 3 0.399832 0.134675 0.715545
30 1 0.0528345 0.273195 0.690199
5 1 0.492197 0.322752 0.634629
11 1 0.828382 0.348251 0.68961
92 2 0.286825 0.602261 0.657753
93 3 0.314796 0.614079 0.643323
94 4 0.262153 0.573127 0.65762
155 2 0.261007 0.589556 0.672146
156 3 0.253096 0.559092 0.660338
157 4 0.27902 0.622148 0.664077
128 2 0.0868153 0.729128 0.706194
129 3 0.0533538 0.728622 0.709264
66 3 0.236304 0.624755 0.632609
130 4 0.11959 0.722185 0.724368
65 2 0.258082 0.617011 0.656976
67 4 0.294051 0.62136 0.668314
21 1 0.235652 0.0576271 0.827628
160 4 0.88466 0.0237897 0.859727
8 1 0.278665 0.225452 0.779353
62 2 0.4821 0.148052 0.887522
63 3 0.456124 0.15285 0.866733
134 2 0.622282 0.16692 0.82581
136 4 0.620941 0.137844 0.801207
135 3 0.637497 0.178586 0.853435
110 2 0.945942 0.15305 0.809604
111 3 0.922073 0.149088 0.78625
112 4 0.956922 0.174294 0.839278
12 1 0.602911 0.350356 0.834281
42 3 0.029445 0.460325 0.86271
152 2 0.740332 0.498324 0.783355
153 3 0.742266 0.464858 0.78071
25 1 0.291258 0.516128 0.855482
83 2 0.631818 0.623149 0.811656
85 4 0.635454 0.586839 0.80066
154 4 0.757343 0.531105 0.773942
40 1 0.0992126 0.71872 0.738319
84 3 0.64823 0.649502 0.824573
24 1 0.82792 0.947467 0.75443
158 2 0.895755 0.989482 0.847384
159 3 0.921026 0.967299 0.847563
19 1 0.4204 0.123351 0.924238
22 1 0.493434 0.121166 0.908129
64 4 0.513113 0.126799 0.893815
41 2 0.0245222 0.461082 0.895965
43 4 0.00332717 0.447119 0.924397
95 2 0.480651 0.462542 0.879924
96 3 0.456058 0.485406 0.878149
97 4 0.490454 0.428773 0.894624
33 1 0.185411 0.627941 0.883763
13 1 0.741081 0.589089 0.98685
61 4 0.0767953 0.745798 0.99175
77 2 0.532774 0.79111 0.984601
79 4 0.555202 0.782997 0.954875
47 2 0.326259 0.933107 0.950632
48 3 0.322175 0.939219 0.917819
49 4 0.315004 0.943268 0.985598
35 1 0.868793 0.961663 0.982687
ITEM: TIMESTEP
214
ITEM: NUMBER OF ATOMS
160
ITEM: BOX BOUNDS pp pp pp
-4.0000000000000000e+01 4.0000000000000000e+01
-4.0000000000000000e+01 4.0000000000000000e+01
-4.0000000000000000e+01 4.0000000000000000e+01
ITEM: ATOMS id type xs ys zs
98 2 0.00325087 0.0881404 0.018016
99 3 0.0183577 0.113016 0.00118053
100 4 0.990955 0.0770694 0.0523541
39 1 0.297113 0.332074 0.0901581
80 2 0.724098 0.309768 0.0810022
81 3 0.733198 0.280247 0.0942717
82 4 0.69489 0.329366 0.0663137
50 2 0.849302 0.309207 0.0312543
51 3 0.839198 0.335373 0.0127153
132 3 0.870839 0.334876 0.130225
52 4 0.879075 0.293895 0.0494743
15 1 0.366965 0.498166 0.0349444
23 1 0.629404 0.58113 0.00184478
60 3 0.139905 0.733468 0.0147058
59 2 0.112304 0.749985 0.0049185
56 2 0.146154 0.847965 0.0606557
57 3 0.156136 0.816109 0.0646524
58 4 0.141891 0.876066 0.0352581
17 1 0.431817 0.786291 0.102778
78 3 0.521049 0.779583 0.0139764
26 1 0.351172 0.914443 0.112431
4 1 0.489971 0.887871 0.0124381
34 1 0.632462 0.988801 0.00945771
142 4 0.0985405 0.00301248 0.239468
9 1 0.857808 0.0849942 0.232155
121 4 0.761148 0.0960752 0.240428
119 2 0.746029 0.130527 0.234321
120 3 0.751351 0.160495 0.220037
20 1 0.869008 0.336245 0.143432
131 2 0.838953 0.324472 0.127877
133 4 0.807111 0.317719 0.147706
37 1 0.155962 0.962621 0.19012
27 1 0.429714 0.0751174 0.279826
53 2 0.613446 0.0756782 0.372643
55 4 0.582681 0.0698245 0.350916
36 1 0.0175752 0.223096 0.295382
6 1 0.794508 0.338839 0.316041
31 1 0.479433 0.468877 0.360149
70 4 0.442174 0.489337 0.271635
68 2 0.434275 0.517642 0.29591
69 3 0.447038 0.544577 0.311466
3 1 0.0421679 0.68035 0.259637
104 2 0.143902 0.6597 0.378023
105 3 0.145716 0.661757 0.344514
140 2 0.0968344 0.972525 0.262281
141 3 0.109841 0.958339 0.289849
149 2 0.280747 0.941759 0.319547
150 3 0.30754 0.962017 0.321019
151 4 0.269575 0.905354 0.317898
115 4 0.72976 0.880851 0.266758
113 2 0.754516 0.905272 0.25115
114 3 0.78507 0.918924 0.254389
54 3 0.644549 0.0648177 0.379361
145 4 0.499783 0.144739 0.473948
143 2 0.509382 0.18138 0.478206
144 3 0.530982 0.205219 0.468432
122 2 0.985308 0.218128 0.435122
123 3 0.995243 0.228936 0.404874
124 4 0.967562 0.189866 0.45354
125 2 0.0333291 0.272273 0.454378
126 3 0.0529224 0.295524 0.440039
127 4 0.00748899 0.266262 0.481723
44 2 0.533021 0.347985 0.456935
45 3 0.56435 0.34637 0.444836
46 4 0.506123 0.32861 0.475753
91 4 0.517191 0.360277 0.447177
71 2 0.704311 0.361666 0.449684
72 3 0.737875 0.359837 0.450374
73 4 0.672157 0.342296 0.456303
90 3 0.482026 0.410603 0.417309
89 2 0.507301 0.389966 0.425422
116 2 0.129885 0.611581 0.428879
118 4 0.123079 0.576242 0.41633
18 1 0.135161 0.637871 0.405061
117 3 0.133236 0.630527 0.456442
7 1 0.775978 0.568422 0.432385
106 4 0.119954 0.657555 0.407595
148 4 0.546968 0.638255 0.481826
108 3 0.135204 0.783687 0.493168
2 1 0.591589 0.909916 0.40461
14 1 0.547213 0.0352235 0.61754
32 1 0.7908 0.0899494 0.616257
38 1 0.70546 0.146974 0.58466
1 1 0.0305384 0.258443 0.487353
137 2 0.32859 0.349679 0.542691
138 3 0.340604 0.373222 0.56347
139 4 0.32347 0.312186 0.53812
28 1 0.992026 0.261485 0.500655
10 1 0.253727 0.444932 0.595706
16 1 0.39627 0.383547 0.508751
29 1 0.456911 0.595452 0.540076
109 4 0.08472 0.749729 0.524153
146 2 0.522257 0.635174 0.510685
147 3 0.515567 0.645283 0.542044
107 2 0.104412 0.775008 0.503512
74 2 0.295301 0.116023 0.708079
76 4 0.292346 0.0799607 0.720063
101 2 0.41513 0.108801 0.700447
103 4 0.423248 0.07167 0.703327
75 3 0.315406 0.142962 0.707382
86 2 0.446532 0.180233 0.633644
87 3 0.424212 0.205224 0.630874
88 4 0.479437 0.169829 0.649827
102 3 0.399874 0.134633 0.715626
30 1 0.0528434 0.273182 0.690297
5 1 0.492152 0.32262 0.634494
11 1 0.828337 0.348345 0.689693
92 2 0.286619 0.602343 0.657548
93 3 0.314808 0.614393 0.643729
94 4 0.262242 0.573047 0.65739
155 2 0.261456 0.589321 0.672638
156 3 0.253 0.559067 0.660689
157 4 0.278949 0.622107 0.664167
128 2 0.086817 0.729133 0.706231
129 3 0.0533367 0.728624 0.709315
66 3 0.2362 0.624963 0.632412
130 4 0.119627 0.722218 0.724344
65 2 0.258009 0.617103 0.656763
67 4 0.294137 0.620645 0.668023
21 1 0.235671 0.0575298 0.827509
160 4 0.884597 0.023744 0.859719
8 1 0.278773 0.225329 0.77916
62 2 0.481912 0.148031 0.887649
63 3 0.455902 0.152792 0.866893
134 2 0.62228 0.166915 0.825811
136 4 0.62095 0.137834 0.801207
135 3 0.637486 0.178585 0.853434
110 2 0.945948 0.153077 0.809538
111 3 0.922071 0.14911 0.786202
112 4 0.956926 0.174307 0.839231
12 1 0.602929 0.350381 0.834296
42 3 0.0294683 0.460322 0.862707
152 2 0.740347 0.498286 0.783357
153 3 0.742274 0.464825 0.7807
25 1 0.29131 0.516161 0.855278
83 2 0.631813 0.623164 0.811707
85 4 0.635443 0.586854 0.800692
154 4 0.757357 0.531072 0.773944
40 1 0.0991704 0.718696 0.738242
84 3 0.648233 0.649511 0.824616
24 1 0.828065 0.947473 0.754572
158 2 0.895693 0.989432 0.847372
159 3 0.920964 0.967256 0.847542
19 1 0.420987 0.123536 0.92378
22 1 0.493373 0.120999 0.908154
64 4 0.513006 0.126882 0.893877
41 2 0.0245504 0.461081 0.895959
43 4 0.0033489 0.447126 0.924395
95 2 0.480626 0.462532 0.879957
96 3 0.456028 0.485385 0.878193
97 4 0.490443 0.428756 0.894643
33 1 0.185309 0.628065 0.883719
13 1 0.741254 0.589056 0.986742
61 4 0.0767907 0.745751 0.991737
77 2 0.532745 0.791186 0.984668
79 4 0.555166 0.78305 0.954936
47 2 0.326318 0.93314 0.950668
48 3 0.32221 0.939246 0.917861
49 4 0.315059 0.943281 0.985643
35 1 0.868933 0.961749 0.982612
ITEM: TIMESTEP
0
ITEM: NUMBER OF ATOMS
160
ITEM: BOX BOUNDS pp pp pp
-4.0000000000000000e+01 4.0000000000000000e+01
-4.0000000000000000e+01 4.0000000000000000e+01
-4.0000000000000000e+01 4.0000000000000000e+01
ITEM: ATOMS id type xs ys zs
98 2 0.00325087 0.0881404 0.018016
99 3 0.0183577 0.113016 0.00118053
100 4 0.990955 0.0770694 0.0523541
39 1 0.297113 0.332074 0.0901581
80 2 0.724098 0.309768 0.0810022
81 3 0.733198 0.280247 0.0942717
82 4 0.69489 0.329366 0.0663137
50 2 0.849302 0.309207 0.0312543
51 3 0.839198 0.335373 0.0127153
52 4 0.879075 0.293895 0.0494743
15 1 0.366965 0.498166 0.0349444
23 1 0.629404 0.58113 0.00184478
59 2 0.112304 0.749985 0.0049185
60 3 0.139905 0.733468 0.0147058
56 2 0.146154 0.847965 0.0606557
57 3 0.156136 0.816109 0.0646524
17 1 0.431817 0.786291 0.102778
78 3 0.521049 0.779583 0.0139764
58 4 0.141891 0.876066 0.0352581
26 1 0.351172 0.914443 0.112431
4 1 0.489971 0.887871 0.0124381
34 1 0.632462 0.988801 0.00945771
142 4 0.0985405 0.00301248 0.239468
9 1 0.857808 0.0849942 0.232155
121 4 0.761148 0.0960752 0.240428
119 2 0.746029 0.130527 0.234321
120 3 0.751351 0.160495 0.220037
132 3 0.870839 0.334876 0.130225
20 1 0.869008 0.336245 0.143432
131 2 0.838953 0.324472 0.127877
133 4 0.807111 0.317719 0.147706
37 1 0.155962 0.962621 0.19012
27 1 0.429714 0.0751174 0.279826
53 2 0.613446 0.0756782 0.372643
55 4 0.582681 0.0698245 0.350916
36 1 0.0175752 0.223096 0.295382
6 1 0.794508 0.338839 0.316041
31 1 0.479433 0.468877 0.360149
70 4 0.442174 0.489337 0.271635
68 2 0.434275 0.517642 0.29591
69 3 0.447038 0.544577 0.311466
3 1 0.0421679 0.68035 0.259637
105 3 0.145716 0.661757 0.344514
140 2 0.0968344 0.972525 0.262281
141 3 0.109841 0.958339 0.289849
149 2 0.280747 0.941759 0.319547
150 3 0.30754 0.962017 0.321019
151 4 0.269575 0.905354 0.317898
115 4 0.72976 0.880851 0.266758
113 2 0.754516 0.905272 0.25115
114 3 0.78507 0.918924 0.254389
54 3 0.644549 0.0648177 0.379361
145 4 0.499783 0.144739 0.473948
143 2 0.509382 0.18138 0.478206
144 3 0.530982 0.205219 0.468432
122 2 0.985308 0.218128 0.435122
123 3 0.995243 0.228936 0.404874
124 4 0.967562 0.189866 0.45354
125 2 0.0333291 0.272273 0.454378
126 3 0.0529224 0.295524 0.440039
127 4 0.00748899 0.266262 0.481723
1 1 0.0305384 0.258443 0.487353
44 2 0.533021 0.347985 0.456935
45 3 0.56435 0.34637 0.444836
46 4 0.506123 0.32861 0.475753
91 4 0.517191 0.360277 0.447177
71 2 0.704311 0.361666 0.449684
72 3 0.737875 0.359837 0.450374
73 4 0.672157 0.342296 0.456303
90 3 0.482026 0.410603 0.417309
89 2 0.507301 0.389966 0.425422
118 4 0.123079 0.576242 0.41633
116 2 0.129885 0.611581 0.428879
7 1 0.775978 0.568422 0.432385
106 4 0.119954 0.657555 0.407595
104 2 0.143902 0.6597 0.378023
18 1 0.135161 0.637871 0.405061
117 3 0.133236 0.630527 0.456442
148 4 0.546968 0.638255 0.481826
108 3 0.135204 0.783687 0.493168
2 1 0.591589 0.909916 0.40461
14 1 0.547213 0.0352235 0.61754
32 1 0.7908 0.0899494 0.616257
38 1 0.70546 0.146974 0.58466
137 2 0.32859 0.349679 0.542691
138 3 0.340604 0.373222 0.56347
139 4 0.32347 0.312186 0.53812
28 1 0.992026 0.261485 0.500655
10 1 0.253727 0.444932 0.595706
16 1 0.39627 0.383547 0.508751
29 1 0.456911 0.595452 0.540076
109 4 0.08472 0.749729 0.524153
146 2 0.522257 0.635174 0.510685
147 3 0.515567 0.645283 0.542044
107 2 0.104412 0.775008 0.503512
74 2 0.295301 0.116023 0.708079
76 4 0.292346 0.0799607 0.720063
101 2 0.41513 0.108801 0.700447
103 4 0.423248 0.07167 0.703327
75 3 0.315406 0.142962 0.707382
86 2 0.446532 0.180233 0.633644
87 3 0.424212 0.205224 0.630874
88 4 0.479437 0.169829 0.649827
102 3 0.399874 0.134633 0.715626
30 1 0.0528434 0.273182 0.690297
5 1 0.492152 0.32262 0.634494
11 1 0.828337 0.348345 0.689693
66 3 0.2362 0.624963 0.632412
92 2 0.286619 0.602343 0.657548
93 3 0.314808 0.614393 0.643729
94 4 0.262242 0.573047 0.65739
155 2 0.261456 0.589321 0.672638
156 3 0.253 0.559067 0.660689
157 4 0.278949 0.622107 0.664167
65 2 0.258009 0.617103 0.656763
67 4 0.294137 0.620645 0.668023
128 2 0.086817 0.729133 0.706231
129 3 0.0533367 0.728624 0.709315
130 4 0.119627 0.722218 0.724344
40 1 0.0991704 0.718696 0.738242
21 1 0.235671 0.0575298 0.827509
160 4 0.884597 0.023744 0.859719
8 1 0.278773 0.225329 0.77916
63 3 0.455902 0.152792 0.866893
134 2 0.62228 0.166915 0.825811
136 4 0.62095 0.137834 0.801207
135 3 0.637486 0.178585 0.853434
110 2 0.945948 0.153077 0.809538
111 3 0.922071 0.14911 0.786202
112 4 0.956926 0.174307 0.839231
12 1 0.602929 0.350381 0.834296
42 3 0.0294683 0.460322 0.862707
152 2 0.740347 0.498286 0.783357
153 3 0.742274 0.464825 0.7807
25 1 0.29131 0.516161 0.855278
83 2 0.631813 0.623164 0.811707
85 4 0.635443 0.586854 0.800692
154 4 0.757357 0.531072 0.773944
84 3 0.648233 0.649511 0.824616
24 1 0.828065 0.947473 0.754572
158 2 0.895693 0.989432 0.847372
159 3 0.920964 0.967256 0.847542
19 1 0.420987 0.123536 0.92378
22 1 0.493373 0.120999 0.908154
62 2 0.481912 0.148031 0.887649
64 4 0.513006 0.126882 0.893877
41 2 0.0245504 0.461081 0.895959
43 4 0.0033489 0.447126 0.924395
95 2 0.480626 0.462532 0.879957
96 3 0.456028 0.485385 0.878193
97 4 0.490443 0.428756 0.894643
13 1 0.741254 0.589056 0.986742
61 4 0.0767907 0.745751 0.991737
33 1 0.185309 0.628065 0.883719
77 2 0.532745 0.791186 0.984668
79 4 0.555166 0.78305 0.954936
47 2 0.326318 0.93314 0.950668
48 3 0.32221 0.939246 0.917861
49 4 0.315059 0.943281 0.985643
35 1 0.868933 0.961749 0.982612
ITEM: TIMESTEP
100
ITEM: NUMBER OF ATOMS
160
ITEM: BOX BOUNDS pp pp pp
-3.8351344224208226e+01 3.8351344224208226e+01
-3.8351344224208226e+01 3.8351344224208226e+01
-3.8351344224208226e+01 3.8351344224208226e+01
ITEM: ATOMS id type xs ys zs
98 2 0.00412484 0.0947932 0.0187042
99 3 0.0191363 0.122822 0.00385902
100 4 0.987509 0.0811766 0.0521327
39 1 0.296424 0.331103 0.0934285
80 2 0.722497 0.309301 0.0787037
81 3 0.733092 0.279141 0.0932035
82 4 0.691025 0.328458 0.0634446
50 2 0.852868 0.310423 0.0281399
51 3 0.841654 0.339667 0.012318
52 4 0.882982 0.294237 0.0484197
15 1 0.36379 0.500957 0.0353326
23 1 0.626744 0.579678 0.00402982
59 2 0.109616 0.748967 0.00687285
60 3 0.137666 0.731856 0.0189991
56 2 0.146528 0.850215 0.0594737
57 3 0.160502 0.818062 0.0613146
17 1 0.432761 0.787489 0.100098
78 3 0.510656 0.779925 0.0110639
58 4 0.139852 0.88111 0.0353943
26 1 0.350816 0.915657 0.112206
4 1 0.483545 0.884807 0.0150064
34 1 0.631247 0.992204 0.0105687
142 4 0.10354 0.00394598 0.239238
9 1 0.859104 0.0873326 0.231202
121 4 0.757274 0.0923335 0.237436
119 2 0.750533 0.131492 0.235895
120 3 0.763964 0.16222 0.225727
132 3 0.870537 0.335792 0.127004
20 1 0.870734 0.335415 0.140957
131 2 0.837069 0.325461 0.128539
133 4 0.806657 0.317981 0.153004
37 1 0.156089 0.960908 0.19071
27 1 0.43124 0.076659 0.279685
53 2 0.611195 0.0702437 0.374456
55 4 0.578806 0.0701227 0.35149
36 1 0.0152084 0.223829 0.298121
6 1 0.793385 0.340126 0.314355
31 1 0.477981 0.468866 0.355823
70 4 0.44124 0.491357 0.266713
68 2 0.435665 0.51746 0.296233
69 3 0.448701 0.546187 0.311591
3 1 0.0429324 0.680255 0.257222
105 3 0.151633 0.652763 0.343028
140 2 0.0926004 0.972116 0.260367
141 3 0.103325 0.94863 0.284036
149 2 0.284185 0.9419 0.32242
150 3 0.314517 0.959449 0.322373
151 4 0.268108 0.905538 0.321453
115 4 0.731636 0.877274 0.269538
113 2 0.752884 0.904321 0.24953
114 3 0.785309 0.914152 0.240545
54 3 0.645539 0.063221 0.375337
145 4 0.501259 0.145571 0.470119
143 2 0.508184 0.184063 0.477439
144 3 0.527954 0.211538 0.468261
122 2 0.983829 0.221011 0.44095
123 3 0.991366 0.232962 0.408836
124 4 0.971348 0.189249 0.461279
125 2 0.0369204 0.27418 0.454491
126 3 0.054454 0.298436 0.436224
127 4 0.00970835 0.268512 0.482892
1 1 0.0336051 0.259479 0.488771
44 2 0.534319 0.345965 0.461889
45 3 0.565277 0.348554 0.445617
46 4 0.507419 0.3205 0.47622
91 4 0.519939 0.353654 0.445494
71 2 0.704567 0.361757 0.450071
72 3 0.738199 0.366337 0.458894
73 4 0.672479 0.339108 0.45586
90 3 0.484583 0.408535 0.417205
89 2 0.51082 0.389145 0.430088
118 4 0.125137 0.570611 0.416328
116 2 0.131668 0.608632 0.426175
7 1 0.777421 0.568892 0.431608
106 4 0.116354 0.656328 0.404728
104 2 0.143138 0.661776 0.375849
18 1 0.13604 0.639156 0.405041
117 3 0.136438 0.630614 0.45307
148 4 0.549755 0.642015 0.485098
108 3 0.136697 0.779574 0.484588
2 1 0.589138 0.910031 0.40243