LAMMPS (22 Aug 2018)
dimension 3
boundary f f f
atom_style full
units metal
dielectric 2.0
bond_style harmonic
angle_style harmonic

neighbor 2.0 bin
neigh_modify delay 0 every 1 check yes

region box1 block -40.0 40.0 -40.0 40.0 -40.0 40.0
create_box 4 box1 bond/types 2 extra/bond/per/atom 2 angle/types 1 extra/angle/per/atom 1
Created orthogonal box = (-40 -40 -40) to (40 40 40)
  1 by 1 by 1 MPI processor grid

#molecule cat_ion cation_mol.txt
mass    1  290.0 #anion
mass    2  67.0 #ring
mass    3  15.0 #methyl
mass    4  29.0 #ethyl

create_atoms 1 single  10.0 0.0 0.0
Created 1 atoms
  Time spent = 3.8147e-05 secs
create_atoms 2 single   0.930064 0.67314 0.003587
Created 1 atoms
  Time spent = 0.00275183 secs
create_atoms 3 single   3.618873 0.602433 0.01098
Created 1 atoms
  Time spent = 2.86102e-06 secs
create_atoms 4 single   -1.57953 -0.87466 0.74759
Created 1 atoms
  Time spent = 2.14577e-06 secs
group anion type 1
1 atoms in group anion
group ring type 2
1 atoms in group ring
group methyl type 3
1 atoms in group methyl
group ethyl type 4
1 atoms in group ethyl

bond_coeff 1 200.0 2.689748837
bond_coeff 2 200.0 3.04931147
angle_coeff 1 200.0 144.1868904
pair_style lj/cut 30.0
pair_modify mix geometric
################### properties to change
pair_coeff 1 1   0.0013009 10.0 30.0
pair_coeff 2 2   0.0013009  5.0 15.0
pair_coeff 3 3   0.0013009  5.0 15.0
pair_coeff 4 4   0.0013009  5.0 15.0
#create_bonds ring methyl 1 1.0 10.0
#create_bonds ring ethyl  1 1.0 10.0

create_bonds single/bond 1 2 3
  1 = max # of 1-2 neighbors
  0 = max # of 1-3 neighbors
  0 = max # of 1-4 neighbors
  1 = max # of special neighbors
create_bonds single/bond 2 2 4
  2 = max # of 1-2 neighbors
  1 = max # of 1-3 neighbors
  1 = max # of 1-4 neighbors
  2 = max # of special neighbors
create_bonds single/angle 1 3 2 4
  2 = max # of 1-2 neighbors
  1 = max # of 1-3 neighbors
  1 = max # of 1-4 neighbors
  2 = max # of special neighbors


kspace_style msm 1.0e-6
kspace_modify pressure/scalar yes
set type 1 charge -1.0
  1 settings made for charge
set type 2 charge  0.408675
  1 settings made for charge
set type 3 charge  0.317505
  1 settings made for charge
set type 4 charge  0.273820
  1 settings made for charge

pair_style lj/cut/coul/msm 30.0
pair_modify mix geometric
################### properties to change
pair_coeff 1 1   0.0013009 10.0 30.0
pair_coeff 2 2   0.0013009  5.0 15.0
pair_coeff 3 3   0.0013009  5.0 15.0
pair_coeff 4 4   0.0013009  5.0 15.0

########################################


thermo_style	custom step temp pe ke ebond press density
thermo       100

write_data solid.data pair ij
MSM initialization ...
WARNING: Adjusting Coulombic cutoff for MSM, new cutoff = 144.125 (../msm.cpp:1054)
  using 12-bit tables for long-range coulomb (../kspace.cpp:321)
WARNING: For better accuracy use 'pair_modify table 0' (../kspace.cpp:342)
  3d grid size/proc = 1331
  estimated absolute RMS force accuracy = 1.43996e-05
  estimated relative force accuracy = 1e-06
  grid = 2 2 2
  order = 10
Neighbor list info ...
  update every 1 steps, delay 0 steps, check yes
  max neighbors/atom: 2000, page size: 100000
  master list distance cutoff = 146.125
  ghost atom cutoff = 146.125
  binsize = 73.0625, bins = 2 2 2
  1 neighbor lists, perpetual/occasional/extra = 1 0 0
  (1) pair lj/cut/coul/msm, perpetual
      attributes: half, newton on
      pair build: half/bin/newton
      stencil: half/bin/3d/newton
      bin: standard

variable  dist   equal  3.8   #minimum scanning radius
#variable  ILdens equal density
variable  anx equal x[1]
variable  any equal y[1]
variable  anz equal z[1]
variable  ILdist equal sqrt(x[1]*x[1]+y[1]*y[1]+z[1]*z[1])
variable  ILstep equal step
#variable  ILtime equal time/1000000 #from fs to ns
variable  ILtemp equal temp
variable  ILpe equal pe
variable  ILke equal ke
variable  ILpr equal press

##################################
velocity  all zero linear
reset_timestep  0
timestep	.2
fix	  333 all print 1 "${ILdist} ${theta} ${phi} ${anx} ${any} ${anz} ${ILpe}" file density.dat screen no
#dump 1 all dcd 1 minim.dcd

##################################
#  Loop for angles
##################################
fix frzanion anion setforce 0.0 0.0 0.0
fix frzring  ring  setforce 0.0 0.0 0.0
label theta_loop
variable j loop 0 18
#variable j loop 0 0
variable theta equal $j*10
variable theta equal 0*10

label phi_loop
variable k loop 0 36
#variable k loop 0 0
variable phi equal $k*10
variable phi equal 0*10

variable  vxx equal sin($(v_theta/180*PI))*cos($(v_phi/180*PI))
variable  vxx equal sin(0)*cos($(v_phi/180*PI))
variable  vxx equal sin(0)*cos(0)
variable  vzz equal sin($(v_theta/180*PI))*sin($(v_phi/180*PI))
variable  vzz equal sin(0)*sin($(v_phi/180*PI))
variable  vzz equal sin(0)*sin(0)
variable  vyy equal cos($(v_theta/180*PI))
variable  vyy equal cos(0)
#variable  vxx equal sin($(v_theta/180*PI))*cos($(v_phi/180*PI))
#variable  vyy equal sin($(v_theta/180*PI))*sin($(v_phi/180*PI))
#variable  vzz equal cos($(v_theta/180*PI))
variable  xx equal v_dist*v_vxx
variable  yy equal v_dist*v_vyy
variable  zz equal v_dist*v_vzz

set atom 1 x ${xx} y ${yy} z ${zz}
set atom 1 x 0 y ${yy} z ${zz}
set atom 1 x 0 y 3.8 z ${zz}
set atom 1 x 0 y 3.8 z 0
  1 settings made for x
  1 settings made for y
  1 settings made for z
fix      1 anion move linear ${vxx} ${vyy} ${vzz}
fix      1 anion move linear 0 ${vyy} ${vzz}
fix      1 anion move linear 0 1 ${vzz}
fix      1 anion move linear 0 1 0
run             150
MSM initialization ...
WARNING: Adjusting Coulombic cutoff for MSM, new cutoff = 144.125 (../msm.cpp:1054)
  using 12-bit tables for long-range coulomb (../kspace.cpp:321)
WARNING: For better accuracy use 'pair_modify table 0' (../kspace.cpp:342)
  3d grid size/proc = 1331
  estimated absolute RMS force accuracy = 1.43996e-05
  estimated relative force accuracy = 1e-06
  grid = 2 2 2
  order = 10
Per MPI rank memory allocation (min/avg/max) = 6.787 | 6.787 | 6.787 Mbytes
Step Temp PotEng KinEng E_bond Press Density 
       0            0    54.421447            0  0.014032127    715.92028 0.0013005393 
     100    38.754379  -0.29015457   0.01502819  0.014032127     10.34178 0.0013005393 
     150    38.754379  -0.19997815   0.01502819  0.014032127    10.435842 0.0013005393 
Loop time of 1.03028 on 1 procs for 150 steps with 4 atoms

Performance: 2515.814 ns/day, 0.010 hours/ns, 145.591 timesteps/s
100.0% CPU use with 1 MPI tasks x no OpenMP threads

MPI task timing breakdown:
Section |  min time  |  avg time  |  max time  |%varavg| %total
---------------------------------------------------------------
Pair    | 0.00034189 | 0.00034189 | 0.00034189 |   0.0 |  0.03
Bond    | 8.6784e-05 | 8.6784e-05 | 8.6784e-05 |   0.0 |  0.01
Kspace  | 1.0274     | 1.0274     | 1.0274     |   0.0 | 99.72
Neigh   | 5.0545e-05 | 5.0545e-05 | 5.0545e-05 |   0.0 |  0.00
Comm    | 3.6001e-05 | 3.6001e-05 | 3.6001e-05 |   0.0 |  0.00
Output  | 3.0041e-05 | 3.0041e-05 | 3.0041e-05 |   0.0 |  0.00
Modify  | 0.0022724  | 0.0022724  | 0.0022724  |   0.0 |  0.22
Other   |            | 8.702e-05  |            |       |  0.01

Nlocal:    4 ave 4 max 4 min
Histogram: 1 0 0 0 0 0 0 0 0 0
Nghost:    0 ave 0 max 0 min
Histogram: 1 0 0 0 0 0 0 0 0 0
Neighs:    6 ave 6 max 6 min
Histogram: 1 0 0 0 0 0 0 0 0 0

Total # of neighbors = 6
Ave neighs/atom = 1.5
Ave special neighs/atom = 1.5
Neighbor list builds = 25
Dangerous builds = 0
#minimize 1.e-4 1.0e-6 100 1000
#run             1

next k
jump in.CG.IL phi_loop
variable k loop 0 36
#variable k loop 0 0
variable phi equal $k*10
variable phi equal 1*10

variable  vxx equal sin($(v_theta/180*PI))*cos($(v_phi/180*PI))
variable  vxx equal sin(0)*cos($(v_phi/180*PI))
variable  vxx equal sin(0)*cos(0.1745329251994329478)
variable  vzz equal sin($(v_theta/180*PI))*sin($(v_phi/180*PI))
variable  vzz equal sin(0)*sin($(v_phi/180*PI))
variable  vzz equal sin(0)*sin(0.1745329251994329478)
variable  vyy equal cos($(v_theta/180*PI))
variable  vyy equal cos(0)
#variable  vxx equal sin($(v_theta/180*PI))*cos($(v_phi/180*PI))
#variable  vyy equal sin($(v_theta/180*PI))*sin($(v_phi/180*PI))
#variable  vzz equal cos($(v_theta/180*PI))
variable  xx equal v_dist*v_vxx
variable  yy equal v_dist*v_vyy
variable  zz equal v_dist*v_vzz

set atom 1 x ${xx} y ${yy} z ${zz}
set atom 1 x 0 y ${yy} z ${zz}
set atom 1 x 0 y 3.8 z ${zz}
set atom 1 x 0 y 3.8 z 0
  1 settings made for x
  1 settings made for y
  1 settings made for z
fix      1 anion move linear ${vxx} ${vyy} ${vzz}
fix      1 anion move linear 0 ${vyy} ${vzz}
fix      1 anion move linear 0 1 ${vzz}
fix      1 anion move linear 0 1 0
run             150
MSM initialization ...
WARNING: Adjusting Coulombic cutoff for MSM, new cutoff = 144.125 (../msm.cpp:1054)
  using 12-bit tables for long-range coulomb (../kspace.cpp:321)
WARNING: For better accuracy use 'pair_modify table 0' (../kspace.cpp:342)
  3d grid size/proc = 1331
  estimated absolute RMS force accuracy = 1.43996e-05
  estimated relative force accuracy = 1e-06
  grid = 2 2 2
  order = 10
Per MPI rank memory allocation (min/avg/max) = 6.787 | 6.787 | 6.787 Mbytes
Step Temp PotEng KinEng E_bond Press Density 
     150    38.754379    54.421447   0.01502819  0.014032127    715.95163 0.0013005393 
     200    38.754379  -0.51029366   0.01502819  0.014032127    10.110726 0.0013005393 
     300    38.754379  -0.19997815   0.01502819  0.014032127    10.435842 0.0013005393 
Loop time of 1.01418 on 1 procs for 150 steps with 4 atoms

Performance: 2555.762 ns/day, 0.009 hours/ns, 147.903 timesteps/s
100.0% CPU use with 1 MPI tasks x no OpenMP threads

MPI task timing breakdown:
Section |  min time  |  avg time  |  max time  |%varavg| %total
---------------------------------------------------------------
Pair    | 0.0002737  | 0.0002737  | 0.0002737  |   0.0 |  0.03
Bond    | 7.8678e-05 | 7.8678e-05 | 7.8678e-05 |   0.0 |  0.01
Kspace  | 1.0115     | 1.0115     | 1.0115     |   0.0 | 99.73
Neigh   | 4.1246e-05 | 4.1246e-05 | 4.1246e-05 |   0.0 |  0.00
Comm    | 3.171e-05  | 3.171e-05  | 3.171e-05  |   0.0 |  0.00
Output  | 2.5749e-05 | 2.5749e-05 | 2.5749e-05 |   0.0 |  0.00
Modify  | 0.0021772  | 0.0021772  | 0.0021772  |   0.0 |  0.21
Other   |            | 9.227e-05  |            |       |  0.01

Nlocal:    4 ave 4 max 4 min
Histogram: 1 0 0 0 0 0 0 0 0 0
Nghost:    0 ave 0 max 0 min
Histogram: 1 0 0 0 0 0 0 0 0 0
Neighs:    6 ave 6 max 6 min
Histogram: 1 0 0 0 0 0 0 0 0 0

Total # of neighbors = 6
Ave neighs/atom = 1.5
Ave special neighs/atom = 1.5
Neighbor list builds = 25
Dangerous builds = 0
#minimize 1.e-4 1.0e-6 100 1000
#run             1

next k
jump in.CG.IL phi_loop
variable k loop 0 36
#variable k loop 0 0
variable phi equal $k*10
variable phi equal 2*10

variable  vxx equal sin($(v_theta/180*PI))*cos($(v_phi/180*PI))
variable  vxx equal sin(0)*cos($(v_phi/180*PI))
variable  vxx equal sin(0)*cos(0.34906585039886589561)
variable  vzz equal sin($(v_theta/180*PI))*sin($(v_phi/180*PI))
variable  vzz equal sin(0)*sin($(v_phi/180*PI))
variable  vzz equal sin(0)*sin(0.34906585039886589561)
variable  vyy equal cos($(v_theta/180*PI))
variable  vyy equal cos(0)
#variable  vxx equal sin($(v_theta/180*PI))*cos($(v_phi/180*PI))
#variable  vyy equal sin($(v_theta/180*PI))*sin($(v_phi/180*PI))
#variable  vzz equal cos($(v_theta/180*PI))
variable  xx equal v_dist*v_vxx
variable  yy equal v_dist*v_vyy
variable  zz equal v_dist*v_vzz

set atom 1 x ${xx} y ${yy} z ${zz}
set atom 1 x 0 y ${yy} z ${zz}
set atom 1 x 0 y 3.8 z ${zz}
set atom 1 x 0 y 3.8 z 0
  1 settings made for x
  1 settings made for y
  1 settings made for z
fix      1 anion move linear ${vxx} ${vyy} ${vzz}
fix      1 anion move linear 0 ${vyy} ${vzz}
fix      1 anion move linear 0 1 ${vzz}
fix      1 anion move linear 0 1 0
run             150
MSM initialization ...
WARNING: Adjusting Coulombic cutoff for MSM, new cutoff = 144.125 (../msm.cpp:1054)
  using 12-bit tables for long-range coulomb (../kspace.cpp:321)
WARNING: For better accuracy use 'pair_modify table 0' (../kspace.cpp:342)
  3d grid size/proc = 1331
  estimated absolute RMS force accuracy = 1.43996e-05
  estimated relative force accuracy = 1e-06
  grid = 2 2 2
  order = 10
Per MPI rank memory allocation (min/avg/max) = 6.787 | 6.787 | 6.787 Mbytes
Step Temp PotEng KinEng E_bond Press Density 
     300    38.754379    54.421447   0.01502819  0.014032127    715.95163 0.0013005393 
     400    38.754379  -0.29015457   0.01502819  0.014032127     10.34178 0.0013005393 
     450    38.754379  -0.19997815   0.01502819  0.014032127    10.435842 0.0013005393 
Loop time of 1.01565 on 1 procs for 150 steps with 4 atoms

Performance: 2552.068 ns/day, 0.009 hours/ns, 147.689 timesteps/s
100.0% CPU use with 1 MPI tasks x no OpenMP threads

MPI task timing breakdown:
Section |  min time  |  avg time  |  max time  |%varavg| %total
---------------------------------------------------------------
Pair    | 0.00027156 | 0.00027156 | 0.00027156 |   0.0 |  0.03
Bond    | 7.081e-05  | 7.081e-05  | 7.081e-05  |   0.0 |  0.01
Kspace  | 1.013      | 1.013      | 1.013      |   0.0 | 99.74
Neigh   | 4.5061e-05 | 4.5061e-05 | 4.5061e-05 |   0.0 |  0.00
Comm    | 2.7895e-05 | 2.7895e-05 | 2.7895e-05 |   0.0 |  0.00
Output  | 2.5272e-05 | 2.5272e-05 | 2.5272e-05 |   0.0 |  0.00
Modify  | 0.0021429  | 0.0021429  | 0.0021429  |   0.0 |  0.21
Other   |            | 8.845e-05  |            |       |  0.01

Nlocal:    4 ave 4 max 4 min
Histogram: 1 0 0 0 0 0 0 0 0 0
Nghost:    0 ave 0 max 0 min
Histogram: 1 0 0 0 0 0 0 0 0 0
Neighs:    6 ave 6 max 6 min
Histogram: 1 0 0 0 0 0 0 0 0 0

Total # of neighbors = 6
Ave neighs/atom = 1.5
Ave special neighs/atom = 1.5
Neighbor list builds = 25
Dangerous builds = 0
#minimize 1.e-4 1.0e-6 100 1000
#run             1

next k
jump in.CG.IL phi_loop
variable k loop 0 36
#variable k loop 0 0
variable phi equal $k*10
variable phi equal 3*10

variable  vxx equal sin($(v_theta/180*PI))*cos($(v_phi/180*PI))
variable  vxx equal sin(0)*cos($(v_phi/180*PI))
variable  vxx equal sin(0)*cos(0.52359877559829881566)
variable  vzz equal sin($(v_theta/180*PI))*sin($(v_phi/180*PI))
variable  vzz equal sin(0)*sin($(v_phi/180*PI))
variable  vzz equal sin(0)*sin(0.52359877559829881566)
variable  vyy equal cos($(v_theta/180*PI))
variable  vyy equal cos(0)
#variable  vxx equal sin($(v_theta/180*PI))*cos($(v_phi/180*PI))
#variable  vyy equal sin($(v_theta/180*PI))*sin($(v_phi/180*PI))
#variable  vzz equal cos($(v_theta/180*PI))
variable  xx equal v_dist*v_vxx
variable  yy equal v_dist*v_vyy
variable  zz equal v_dist*v_vzz

set atom 1 x ${xx} y ${yy} z ${zz}
set atom 1 x 0 y ${yy} z ${zz}
set atom 1 x 0 y 3.8 z ${zz}
set atom 1 x 0 y 3.8 z 0
  1 settings made for x
  1 settings made for y
  1 settings made for z
fix      1 anion move linear ${vxx} ${vyy} ${vzz}
fix      1 anion move linear 0 ${vyy} ${vzz}
fix      1 anion move linear 0 1 ${vzz}
fix      1 anion move linear 0 1 0
run             150
MSM initialization ...
WARNING: Adjusting Coulombic cutoff for MSM, new cutoff = 144.125 (../msm.cpp:1054)
  using 12-bit tables for long-range coulomb (../kspace.cpp:321)
WARNING: For better accuracy use 'pair_modify table 0' (../kspace.cpp:342)
  3d grid size/proc = 1331
  estimated absolute RMS force accuracy = 1.43996e-05
  estimated relative force accuracy = 1e-06
  grid = 2 2 2
  order = 10
Per MPI rank memory allocation (min/avg/max) = 6.787 | 6.787 | 6.787 Mbytes
Step Temp PotEng KinEng E_bond Press Density 
     450    38.754379    54.421447   0.01502819  0.014032127    715.95163 0.0013005393 
     500    38.754379  -0.51029366   0.01502819  0.014032127    10.110726 0.0013005393 
     600    38.754379  -0.19997815   0.01502819  0.014032127    10.435842 0.0013005393 
Loop time of 1.01395 on 1 procs for 150 steps with 4 atoms

Performance: 2556.332 ns/day, 0.009 hours/ns, 147.936 timesteps/s
100.0% CPU use with 1 MPI tasks x no OpenMP threads

MPI task timing breakdown:
Section |  min time  |  avg time  |  max time  |%varavg| %total
---------------------------------------------------------------
Pair    | 0.00024986 | 0.00024986 | 0.00024986 |   0.0 |  0.02
Bond    | 8.7261e-05 | 8.7261e-05 | 8.7261e-05 |   0.0 |  0.01
Kspace  | 1.0113     | 1.0113     | 1.0113     |   0.0 | 99.74
Neigh   | 4.673e-05  | 4.673e-05  | 4.673e-05  |   0.0 |  0.00
Comm    | 2.5988e-05 | 2.5988e-05 | 2.5988e-05 |   0.0 |  0.00
Output  | 2.4796e-05 | 2.4796e-05 | 2.4796e-05 |   0.0 |  0.00
Modify  | 0.0021238  | 0.0021238  | 0.0021238  |   0.0 |  0.21
Other   |            | 7.915e-05  |            |       |  0.01

Nlocal:    4 ave 4 max 4 min
Histogram: 1 0 0 0 0 0 0 0 0 0
Nghost:    0 ave 0 max 0 min
Histogram: 1 0 0 0 0 0 0 0 0 0
Neighs:    6 ave 6 max 6 min
Histogram: 1 0 0 0 0 0 0 0 0 0

Total # of neighbors = 6
Ave neighs/atom = 1.5
Ave special neighs/atom = 1.5
Neighbor list builds = 25
Dangerous builds = 0
#minimize 1.e-4 1.0e-6 100 1000
#run             1

next k
jump in.CG.IL phi_loop
variable k loop 0 36
#variable k loop 0 0
variable phi equal $k*10
variable phi equal 4*10

variable  vxx equal sin($(v_theta/180*PI))*cos($(v_phi/180*PI))
variable  vxx equal sin(0)*cos($(v_phi/180*PI))
variable  vxx equal sin(0)*cos(0.69813170079773179122)
variable  vzz equal sin($(v_theta/180*PI))*sin($(v_phi/180*PI))
variable  vzz equal sin(0)*sin($(v_phi/180*PI))
variable  vzz equal sin(0)*sin(0.69813170079773179122)
variable  vyy equal cos($(v_theta/180*PI))
variable  vyy equal cos(0)
#variable  vxx equal sin($(v_theta/180*PI))*cos($(v_phi/180*PI))
#variable  vyy equal sin($(v_theta/180*PI))*sin($(v_phi/180*PI))
#variable  vzz equal cos($(v_theta/180*PI))
variable  xx equal v_dist*v_vxx
variable  yy equal v_dist*v_vyy
variable  zz equal v_dist*v_vzz

set atom 1 x ${xx} y ${yy} z ${zz}
set atom 1 x 0 y ${yy} z ${zz}
set atom 1 x 0 y 3.8 z ${zz}
set atom 1 x 0 y 3.8 z 0
  1 settings made for x
  1 settings made for y
  1 settings made for z
fix      1 anion move linear ${vxx} ${vyy} ${vzz}
fix      1 anion move linear 0 ${vyy} ${vzz}
fix      1 anion move linear 0 1 ${vzz}
fix      1 anion move linear 0 1 0
run             150
MSM initialization ...
WARNING: Adjusting Coulombic cutoff for MSM, new cutoff = 144.125 (../msm.cpp:1054)
  using 12-bit tables for long-range coulomb (../kspace.cpp:321)
WARNING: For better accuracy use 'pair_modify table 0' (../kspace.cpp:342)
  3d grid size/proc = 1331
  estimated absolute RMS force accuracy = 1.43996e-05
  estimated relative force accuracy = 1e-06
  grid = 2 2 2
  order = 10
Per MPI rank memory allocation (min/avg/max) = 6.787 | 6.787 | 6.787 Mbytes
Step Temp PotEng KinEng E_bond Press Density 
     600    38.754379    54.421447   0.01502819  0.014032127    715.95163 0.0013005393 
     700    38.754379  -0.29015457   0.01502819  0.014032127     10.34178 0.0013005393 
     750    38.754379  -0.19997815   0.01502819  0.014032127    10.435842 0.0013005393 
Loop time of 1.01722 on 1 procs for 150 steps with 4 atoms

Performance: 2548.124 ns/day, 0.009 hours/ns, 147.461 timesteps/s
100.0% CPU use with 1 MPI tasks x no OpenMP threads

MPI task timing breakdown:
Section |  min time  |  avg time  |  max time  |%varavg| %total
---------------------------------------------------------------
Pair    | 0.00026727 | 0.00026727 | 0.00026727 |   0.0 |  0.03
Bond    | 7.0572e-05 | 7.0572e-05 | 7.0572e-05 |   0.0 |  0.01
Kspace  | 1.0146     | 1.0146     | 1.0146     |   0.0 | 99.74
Neigh   | 3.4332e-05 | 3.4332e-05 | 3.4332e-05 |   0.0 |  0.00
Comm    | 3.3617e-05 | 3.3617e-05 | 3.3617e-05 |   0.0 |  0.00
Output  | 2.5272e-05 | 2.5272e-05 | 2.5272e-05 |   0.0 |  0.00
Modify  | 0.002099   | 0.002099   | 0.002099   |   0.0 |  0.21
Other   |            | 8.249e-05  |            |       |  0.01

Nlocal:    4 ave 4 max 4 min
Histogram: 1 0 0 0 0 0 0 0 0 0
Nghost:    0 ave 0 max 0 min
Histogram: 1 0 0 0 0 0 0 0 0 0
Neighs:    6 ave 6 max 6 min
Histogram: 1 0 0 0 0 0 0 0 0 0

Total # of neighbors = 6
Ave neighs/atom = 1.5
Ave special neighs/atom = 1.5
Neighbor list builds = 25
Dangerous builds = 0
#minimize 1.e-4 1.0e-6 100 1000
#run             1

next k
jump in.CG.IL phi_loop
variable k loop 0 36
#variable k loop 0 0
variable phi equal $k*10
variable phi equal 5*10

variable  vxx equal sin($(v_theta/180*PI))*cos($(v_phi/180*PI))
variable  vxx equal sin(0)*cos($(v_phi/180*PI))
variable  vxx equal sin(0)*cos(0.87266462599716476678)
variable  vzz equal sin($(v_theta/180*PI))*sin($(v_phi/180*PI))
variable  vzz equal sin(0)*sin($(v_phi/180*PI))
variable  vzz equal sin(0)*sin(0.87266462599716476678)
variable  vyy equal cos($(v_theta/180*PI))
variable  vyy equal cos(0)
#variable  vxx equal sin($(v_theta/180*PI))*cos($(v_phi/180*PI))
#variable  vyy equal sin($(v_theta/180*PI))*sin($(v_phi/180*PI))
#variable  vzz equal cos($(v_theta/180*PI))
variable  xx equal v_dist*v_vxx
variable  yy equal v_dist*v_vyy
variable  zz equal v_dist*v_vzz

set atom 1 x ${xx} y ${yy} z ${zz}
set atom 1 x 0 y ${yy} z ${zz}
set atom 1 x 0 y 3.8 z ${zz}
set atom 1 x 0 y 3.8 z 0
  1 settings made for x
  1 settings made for y
  1 settings made for z
fix      1 anion move linear ${vxx} ${vyy} ${vzz}
fix      1 anion move linear 0 ${vyy} ${vzz}
fix      1 anion move linear 0 1 ${vzz}
fix      1 anion move linear 0 1 0
run             150
MSM initialization ...
WARNING: Adjusting Coulombic cutoff for MSM, new cutoff = 144.125 (../msm.cpp:1054)
  using 12-bit tables for long-range coulomb (../kspace.cpp:321)
WARNING: For better accuracy use 'pair_modify table 0' (../kspace.cpp:342)
  3d grid size/proc = 1331
  estimated absolute RMS force accuracy = 1.43996e-05
  estimated relative force accuracy = 1e-06
  grid = 2 2 2
  order = 10
Per MPI rank memory allocation (min/avg/max) = 6.787 | 6.787 | 6.787 Mbytes
Step Temp PotEng KinEng E_bond Press Density 
     750    38.754379    54.421447   0.01502819  0.014032127    715.95163 0.0013005393 
     800    38.754379  -0.51029366   0.01502819  0.014032127    10.110726 0.0013005393 
     900    38.754379  -0.19997815   0.01502819  0.014032127    10.435842 0.0013005393 
Loop time of 1.01173 on 1 procs for 150 steps with 4 atoms

Performance: 2561.946 ns/day, 0.009 hours/ns, 148.261 timesteps/s
100.0% CPU use with 1 MPI tasks x no OpenMP threads

MPI task timing breakdown:
Section |  min time  |  avg time  |  max time  |%varavg| %total
---------------------------------------------------------------
Pair    | 0.00027847 | 0.00027847 | 0.00027847 |   0.0 |  0.03
Bond    | 7.4863e-05 | 7.4863e-05 | 7.4863e-05 |   0.0 |  0.01
Kspace  | 1.0091     | 1.0091     | 1.0091     |   0.0 | 99.74
Neigh   | 3.6955e-05 | 3.6955e-05 | 3.6955e-05 |   0.0 |  0.00
Comm    | 3.5763e-05 | 3.5763e-05 | 3.5763e-05 |   0.0 |  0.00
Output  | 2.7657e-05 | 2.7657e-05 | 2.7657e-05 |   0.0 |  0.00
Modify  | 0.0021083  | 0.0021083  | 0.0021083  |   0.0 |  0.21
Other   |            | 0.0001018  |            |       |  0.01

Nlocal:    4 ave 4 max 4 min
Histogram: 1 0 0 0 0 0 0 0 0 0
Nghost:    0 ave 0 max 0 min
Histogram: 1 0 0 0 0 0 0 0 0 0
Neighs:    6 ave 6 max 6 min
Histogram: 1 0 0 0 0 0 0 0 0 0

Total # of neighbors = 6
Ave neighs/atom = 1.5
Ave special neighs/atom = 1.5
Neighbor list builds = 25
Dangerous builds = 0
#minimize 1.e-4 1.0e-6 100 1000
#run             1

next k
jump in.CG.IL phi_loop
variable k loop 0 36
#variable k loop 0 0
variable phi equal $k*10
variable phi equal 6*10

variable  vxx equal sin($(v_theta/180*PI))*cos($(v_phi/180*PI))
variable  vxx equal sin(0)*cos($(v_phi/180*PI))
variable  vxx equal sin(0)*cos(1.0471975511965976313)
variable  vzz equal sin($(v_theta/180*PI))*sin($(v_phi/180*PI))
variable  vzz equal sin(0)*sin($(v_phi/180*PI))
variable  vzz equal sin(0)*sin(1.0471975511965976313)
variable  vyy equal cos($(v_theta/180*PI))
variable  vyy equal cos(0)
#variable  vxx equal sin($(v_theta/180*PI))*cos($(v_phi/180*PI))
#variable  vyy equal sin($(v_theta/180*PI))*sin($(v_phi/180*PI))
#variable  vzz equal cos($(v_theta/180*PI))
variable  xx equal v_dist*v_vxx
variable  yy equal v_dist*v_vyy
variable  zz equal v_dist*v_vzz

set atom 1 x ${xx} y ${yy} z ${zz}
set atom 1 x 0 y ${yy} z ${zz}
set atom 1 x 0 y 3.8 z ${zz}
set atom 1 x 0 y 3.8 z 0
  1 settings made for x
  1 settings made for y
  1 settings made for z
fix      1 anion move linear ${vxx} ${vyy} ${vzz}
fix      1 anion move linear 0 ${vyy} ${vzz}
fix      1 anion move linear 0 1 ${vzz}
fix      1 anion move linear 0 1 0
run             150
MSM initialization ...
WARNING: Adjusting Coulombic cutoff for MSM, new cutoff = 144.125 (../msm.cpp:1054)
  using 12-bit tables for long-range coulomb (../kspace.cpp:321)
WARNING: For better accuracy use 'pair_modify table 0' (../kspace.cpp:342)
  3d grid size/proc = 1331
  estimated absolute RMS force accuracy = 1.43996e-05
  estimated relative force accuracy = 1e-06
  grid = 2 2 2
  order = 10
Per MPI rank memory allocation (min/avg/max) = 6.787 | 6.787 | 6.787 Mbytes
Step Temp PotEng KinEng E_bond Press Density 
     900    38.754379    54.421447   0.01502819  0.014032127    715.95163 0.0013005393 
    1000    38.754379  -0.29015457   0.01502819  0.014032127     10.34178 0.0013005393 
    1050    38.754379  -0.19997815   0.01502819  0.014032127    10.435842 0.0013005393 
Loop time of 1.01577 on 1 procs for 150 steps with 4 atoms

Performance: 2551.749 ns/day, 0.009 hours/ns, 147.671 timesteps/s
100.0% CPU use with 1 MPI tasks x no OpenMP threads

MPI task timing breakdown:
Section |  min time  |  avg time  |  max time  |%varavg| %total
---------------------------------------------------------------
Pair    | 0.00026917 | 0.00026917 | 0.00026917 |   0.0 |  0.03
Bond    | 7.3433e-05 | 7.3433e-05 | 7.3433e-05 |   0.0 |  0.01
Kspace  | 1.0131     | 1.0131     | 1.0131     |   0.0 | 99.74
Neigh   | 4.6492e-05 | 4.6492e-05 | 4.6492e-05 |   0.0 |  0.00
Comm    | 1.8597e-05 | 1.8597e-05 | 1.8597e-05 |   0.0 |  0.00
Output  | 2.6703e-05 | 2.6703e-05 | 2.6703e-05 |   0.0 |  0.00
Modify  | 0.0021131  | 0.0021131  | 0.0021131  |   0.0 |  0.21
Other   |            | 9.394e-05  |            |       |  0.01

Nlocal:    4 ave 4 max 4 min
Histogram: 1 0 0 0 0 0 0 0 0 0
Nghost:    0 ave 0 max 0 min
Histogram: 1 0 0 0 0 0 0 0 0 0
Neighs:    6 ave 6 max 6 min
Histogram: 1 0 0 0 0 0 0 0 0 0

Total # of neighbors = 6
Ave neighs/atom = 1.5
Ave special neighs/atom = 1.5
Neighbor list builds = 25
Dangerous builds = 0
#minimize 1.e-4 1.0e-6 100 1000
#run             1

next k
jump in.CG.IL phi_loop
variable k loop 0 36
#variable k loop 0 0
variable phi equal $k*10
variable phi equal 7*10

variable  vxx equal sin($(v_theta/180*PI))*cos($(v_phi/180*PI))
variable  vxx equal sin(0)*cos($(v_phi/180*PI))
variable  vxx equal sin(0)*cos(1.2217304763960306069)
variable  vzz equal sin($(v_theta/180*PI))*sin($(v_phi/180*PI))
variable  vzz equal sin(0)*sin($(v_phi/180*PI))
variable  vzz equal sin(0)*sin(1.2217304763960306069)
variable  vyy equal cos($(v_theta/180*PI))
variable  vyy equal cos(0)
#variable  vxx equal sin($(v_theta/180*PI))*cos($(v_phi/180*PI))
#variable  vyy equal sin($(v_theta/180*PI))*sin($(v_phi/180*PI))
#variable  vzz equal cos($(v_theta/180*PI))
variable  xx equal v_dist*v_vxx
variable  yy equal v_dist*v_vyy
variable  zz equal v_dist*v_vzz

set atom 1 x ${xx} y ${yy} z ${zz}
set atom 1 x 0 y ${yy} z ${zz}
set atom 1 x 0 y 3.8 z ${zz}
set atom 1 x 0 y 3.8 z 0
  1 settings made for x
  1 settings made for y
  1 settings made for z
fix      1 anion move linear ${vxx} ${vyy} ${vzz}
fix      1 anion move linear 0 ${vyy} ${vzz}
fix      1 anion move linear 0 1 ${vzz}
fix      1 anion move linear 0 1 0
run             150
MSM initialization ...
WARNING: Adjusting Coulombic cutoff for MSM, new cutoff = 144.125 (../msm.cpp:1054)
  using 12-bit tables for long-range coulomb (../kspace.cpp:321)
WARNING: For better accuracy use 'pair_modify table 0' (../kspace.cpp:342)
  3d grid size/proc = 1331
  estimated absolute RMS force accuracy = 1.43996e-05
  estimated relative force accuracy = 1e-06
  grid = 2 2 2
  order = 10
Per MPI rank memory allocation (min/avg/max) = 6.787 | 6.787 | 6.787 Mbytes
Step Temp PotEng KinEng E_bond Press Density 
    1050    38.754379    54.421447   0.01502819  0.014032127    715.95163 0.0013005393 
    1100    38.754379  -0.51029366   0.01502819  0.014032127    10.110726 0.0013005393 
    1200    38.754379  -0.19997815   0.01502819  0.014032127    10.435842 0.0013005393 
Loop time of 1.01374 on 1 procs for 150 steps with 4 atoms

Performance: 2556.876 ns/day, 0.009 hours/ns, 147.967 timesteps/s
100.0% CPU use with 1 MPI tasks x no OpenMP threads

MPI task timing breakdown:
Section |  min time  |  avg time  |  max time  |%varavg| %total
---------------------------------------------------------------
Pair    | 0.00028849 | 0.00028849 | 0.00028849 |   0.0 |  0.03
Bond    | 7.2479e-05 | 7.2479e-05 | 7.2479e-05 |   0.0 |  0.01
Kspace  | 1.0111     | 1.0111     | 1.0111     |   0.0 | 99.74
Neigh   | 4.5061e-05 | 4.5061e-05 | 4.5061e-05 |   0.0 |  0.00
Comm    | 1.6689e-05 | 1.6689e-05 | 1.6689e-05 |   0.0 |  0.00
Output  | 2.9087e-05 | 2.9087e-05 | 2.9087e-05 |   0.0 |  0.00
Modify  | 0.0021391  | 0.0021391  | 0.0021391  |   0.0 |  0.21
Other   |            | 8.464e-05  |            |       |  0.01

Nlocal:    4 ave 4 max 4 min
Histogram: 1 0 0 0 0 0 0 0 0 0
Nghost:    0 ave 0 max 0 min
Histogram: 1 0 0 0 0 0 0 0 0 0
Neighs:    6 ave 6 max 6 min
Histogram: 1 0 0 0 0 0 0 0 0 0

Total # of neighbors = 6
Ave neighs/atom = 1.5
Ave special neighs/atom = 1.5
Neighbor list builds = 25
Dangerous builds = 0
#minimize 1.e-4 1.0e-6 100 1000
#run             1

next k
jump in.CG.IL phi_loop
variable k loop 0 36
#variable k loop 0 0
variable phi equal $k*10
variable phi equal 8*10

variable  vxx equal sin($(v_theta/180*PI))*cos($(v_phi/180*PI))
variable  vxx equal sin(0)*cos($(v_phi/180*PI))
variable  vxx equal sin(0)*cos(1.3962634015954635824)
variable  vzz equal sin($(v_theta/180*PI))*sin($(v_phi/180*PI))
variable  vzz equal sin(0)*sin($(v_phi/180*PI))
variable  vzz equal sin(0)*sin(1.3962634015954635824)
variable  vyy equal cos($(v_theta/180*PI))
variable  vyy equal cos(0)
#variable  vxx equal sin($(v_theta/180*PI))*cos($(v_phi/180*PI))
#variable  vyy equal sin($(v_theta/180*PI))*sin($(v_phi/180*PI))
#variable  vzz equal cos($(v_theta/180*PI))
variable  xx equal v_dist*v_vxx
variable  yy equal v_dist*v_vyy
variable  zz equal v_dist*v_vzz

set atom 1 x ${xx} y ${yy} z ${zz}
set atom 1 x 0 y ${yy} z ${zz}
set atom 1 x 0 y 3.8 z ${zz}
set atom 1 x 0 y 3.8 z 0
  1 settings made for x
  1 settings made for y
  1 settings made for z
fix      1 anion move linear ${vxx} ${vyy} ${vzz}
fix      1 anion move linear 0 ${vyy} ${vzz}
fix      1 anion move linear 0 1 ${vzz}
fix      1 anion move linear 0 1 0
run             150
MSM initialization ...
WARNING: Adjusting Coulombic cutoff for MSM, new cutoff = 144.125 (../msm.cpp:1054)
  using 12-bit tables for long-range coulomb (../kspace.cpp:321)
WARNING: For better accuracy use 'pair_modify table 0' (../kspace.cpp:342)
  3d grid size/proc = 1331
  estimated absolute RMS force accuracy = 1.43996e-05
  estimated relative force accuracy = 1e-06
  grid = 2 2 2
  order = 10
Per MPI rank memory allocation (min/avg/max) = 6.787 | 6.787 | 6.787 Mbytes
Step Temp PotEng KinEng E_bond Press Density 
    1200    38.754379    54.421447   0.01502819  0.014032127    715.95163 0.0013005393 
    1300    38.754379  -0.29015457   0.01502819  0.014032127     10.34178 0.0013005393 
    1350    38.754379  -0.19997815   0.01502819  0.014032127    10.435842 0.0013005393 
Loop time of 1.02639 on 1 procs for 150 steps with 4 atoms

Performance: 2525.356 ns/day, 0.010 hours/ns, 146.143 timesteps/s
100.0% CPU use with 1 MPI tasks x no OpenMP threads

MPI task timing breakdown:
Section |  min time  |  avg time  |  max time  |%varavg| %total
---------------------------------------------------------------
Pair    | 0.00031137 | 0.00031137 | 0.00031137 |   0.0 |  0.03
Bond    | 7.4863e-05 | 7.4863e-05 | 7.4863e-05 |   0.0 |  0.01
Kspace  | 1.0235     | 1.0235     | 1.0235     |   0.0 | 99.72
Neigh   | 5.4121e-05 | 5.4121e-05 | 5.4121e-05 |   0.0 |  0.01
Comm    | 3.3855e-05 | 3.3855e-05 | 3.3855e-05 |   0.0 |  0.00
Output  | 4.5061e-05 | 4.5061e-05 | 4.5061e-05 |   0.0 |  0.00
Modify  | 0.0022893  | 0.0022893  | 0.0022893  |   0.0 |  0.22
Other   |            | 9.131e-05  |            |       |  0.01

Nlocal:    4 ave 4 max 4 min
Histogram: 1 0 0 0 0 0 0 0 0 0
Nghost:    0 ave 0 max 0 min
Histogram: 1 0 0 0 0 0 0 0 0 0
Neighs:    6 ave 6 max 6 min
Histogram: 1 0 0 0 0 0 0 0 0 0

Total # of neighbors = 6
Ave neighs/atom = 1.5
Ave special neighs/atom = 1.5
Neighbor list builds = 25
Dangerous builds = 0
#minimize 1.e-4 1.0e-6 100 1000
#run             1

next k
jump in.CG.IL phi_loop
variable k loop 0 36
#variable k loop 0 0
variable phi equal $k*10
variable phi equal 9*10

variable  vxx equal sin($(v_theta/180*PI))*cos($(v_phi/180*PI))
variable  vxx equal sin(0)*cos($(v_phi/180*PI))
variable  vxx equal sin(0)*cos(1.570796326794896558)
variable  vzz equal sin($(v_theta/180*PI))*sin($(v_phi/180*PI))
variable  vzz equal sin(0)*sin($(v_phi/180*PI))
variable  vzz equal sin(0)*sin(1.570796326794896558)
variable  vyy equal cos($(v_theta/180*PI))
variable  vyy equal cos(0)
#variable  vxx equal sin($(v_theta/180*PI))*cos($(v_phi/180*PI))
#variable  vyy equal sin($(v_theta/180*PI))*sin($(v_phi/180*PI))
#variable  vzz equal cos($(v_theta/180*PI))
variable  xx equal v_dist*v_vxx
variable  yy equal v_dist*v_vyy
variable  zz equal v_dist*v_vzz

set atom 1 x ${xx} y ${yy} z ${zz}
set atom 1 x 0 y ${yy} z ${zz}
set atom 1 x 0 y 3.8 z ${zz}
set atom 1 x 0 y 3.8 z 0
  1 settings made for x
  1 settings made for y
  1 settings made for z
fix      1 anion move linear ${vxx} ${vyy} ${vzz}
fix      1 anion move linear 0 ${vyy} ${vzz}
fix      1 anion move linear 0 1 ${vzz}
fix      1 anion move linear 0 1 0
run             150
MSM initialization ...
WARNING: Adjusting Coulombic cutoff for MSM, new cutoff = 144.125 (../msm.cpp:1054)
  using 12-bit tables for long-range coulomb (../kspace.cpp:321)
WARNING: For better accuracy use 'pair_modify table 0' (../kspace.cpp:342)
  3d grid size/proc = 1331
  estimated absolute RMS force accuracy = 1.43996e-05
  estimated relative force accuracy = 1e-06
  grid = 2 2 2
  order = 10
Per MPI rank memory allocation (min/avg/max) = 6.787 | 6.787 | 6.787 Mbytes
Step Temp PotEng KinEng E_bond Press Density 
    1350    38.754379    54.421447   0.01502819  0.014032127    715.95163 0.0013005393 
    1400    38.754379  -0.51029366   0.01502819  0.014032127    10.110726 0.0013005393 
    1500    38.754379  -0.19997815   0.01502819  0.014032127    10.435842 0.0013005393 
Loop time of 1.0509 on 1 procs for 150 steps with 4 atoms

Performance: 2466.462 ns/day, 0.010 hours/ns, 142.735 timesteps/s
100.0% CPU use with 1 MPI tasks x no OpenMP threads

MPI task timing breakdown:
Section |  min time  |  avg time  |  max time  |%varavg| %total
---------------------------------------------------------------
Pair    | 0.00029278 | 0.00029278 | 0.00029278 |   0.0 |  0.03
Bond    | 0.00010538 | 0.00010538 | 0.00010538 |   0.0 |  0.01
Kspace  | 1.0477     | 1.0477     | 1.0477     |   0.0 | 99.69
Neigh   | 6.4135e-05 | 6.4135e-05 | 6.4135e-05 |   0.0 |  0.01
Comm    | 4.4584e-05 | 4.4584e-05 | 4.4584e-05 |   0.0 |  0.00
Output  | 3.2187e-05 | 3.2187e-05 | 3.2187e-05 |   0.0 |  0.00
Modify  | 0.0025663  | 0.0025663  | 0.0025663  |   0.0 |  0.24
Other   |            | 0.0001101  |            |       |  0.01

Nlocal:    4 ave 4 max 4 min
Histogram: 1 0 0 0 0 0 0 0 0 0
Nghost:    0 ave 0 max 0 min
Histogram: 1 0 0 0 0 0 0 0 0 0
Neighs:    6 ave 6 max 6 min
Histogram: 1 0 0 0 0 0 0 0 0 0

Total # of neighbors = 6
Ave neighs/atom = 1.5
Ave special neighs/atom = 1.5
Neighbor list builds = 25
Dangerous builds = 0
#minimize 1.e-4 1.0e-6 100 1000
#run             1

next k
jump in.CG.IL phi_loop
variable k loop 0 36
#variable k loop 0 0
variable phi equal $k*10
variable phi equal 10*10

variable  vxx equal sin($(v_theta/180*PI))*cos($(v_phi/180*PI))
variable  vxx equal sin(0)*cos($(v_phi/180*PI))
variable  vxx equal sin(0)*cos(1.7453292519943295336)
variable  vzz equal sin($(v_theta/180*PI))*sin($(v_phi/180*PI))
variable  vzz equal sin(0)*sin($(v_phi/180*PI))
variable  vzz equal sin(0)*sin(1.7453292519943295336)
variable  vyy equal cos($(v_theta/180*PI))
variable  vyy equal cos(0)
#variable  vxx equal sin($(v_theta/180*PI))*cos($(v_phi/180*PI))
#variable  vyy equal sin($(v_theta/180*PI))*sin($(v_phi/180*PI))
#variable  vzz equal cos($(v_theta/180*PI))
variable  xx equal v_dist*v_vxx
variable  yy equal v_dist*v_vyy
variable  zz equal v_dist*v_vzz

set atom 1 x ${xx} y ${yy} z ${zz}
set atom 1 x -0 y ${yy} z ${zz}
set atom 1 x -0 y 3.8 z ${zz}
set atom 1 x -0 y 3.8 z 0
  1 settings made for x
  1 settings made for y
  1 settings made for z
fix      1 anion move linear ${vxx} ${vyy} ${vzz}
fix      1 anion move linear -0 ${vyy} ${vzz}
fix      1 anion move linear -0 1 ${vzz}
fix      1 anion move linear -0 1 0
run             150
MSM initialization ...
WARNING: Adjusting Coulombic cutoff for MSM, new cutoff = 144.125 (../msm.cpp:1054)
  using 12-bit tables for long-range coulomb (../kspace.cpp:321)
WARNING: For better accuracy use 'pair_modify table 0' (../kspace.cpp:342)
  3d grid size/proc = 1331
  estimated absolute RMS force accuracy = 1.43996e-05
  estimated relative force accuracy = 1e-06
  grid = 2 2 2
  order = 10
Per MPI rank memory allocation (min/avg/max) = 6.787 | 6.787 | 6.787 Mbytes
Step Temp PotEng KinEng E_bond Press Density 
    1500    38.754379    54.421447   0.01502819  0.014032127    715.95163 0.0013005393 
    1600    38.754379  -0.29015457   0.01502819  0.014032127     10.34178 0.0013005393 
    1650    38.754379  -0.19997815   0.01502819  0.014032127    10.435842 0.0013005393 
Loop time of 1.01847 on 1 procs for 150 steps with 4 atoms

Performance: 2544.999 ns/day, 0.009 hours/ns, 147.280 timesteps/s
100.0% CPU use with 1 MPI tasks x no OpenMP threads

MPI task timing breakdown:
Section |  min time  |  avg time  |  max time  |%varavg| %total
---------------------------------------------------------------
Pair    | 0.00026083 | 0.00026083 | 0.00026083 |   0.0 |  0.03
Bond    | 8.2016e-05 | 8.2016e-05 | 8.2016e-05 |   0.0 |  0.01
Kspace  | 1.0156     | 1.0156     | 1.0156     |   0.0 | 99.72
Neigh   | 4.7207e-05 | 4.7207e-05 | 4.7207e-05 |   0.0 |  0.00
Comm    | 3.3855e-05 | 3.3855e-05 | 3.3855e-05 |   0.0 |  0.00
Output  | 3.8147e-05 | 3.8147e-05 | 3.8147e-05 |   0.0 |  0.00
Modify  | 0.0022738  | 0.0022738  | 0.0022738  |   0.0 |  0.22
Other   |            | 8.368e-05  |            |       |  0.01

Nlocal:    4 ave 4 max 4 min
Histogram: 1 0 0 0 0 0 0 0 0 0
Nghost:    0 ave 0 max 0 min
Histogram: 1 0 0 0 0 0 0 0 0 0
Neighs:    6 ave 6 max 6 min
Histogram: 1 0 0 0 0 0 0 0 0 0

Total # of neighbors = 6
Ave neighs/atom = 1.5
Ave special neighs/atom = 1.5
Neighbor list builds = 25
Dangerous builds = 0
#minimize 1.e-4 1.0e-6 100 1000
#run             1

next k
jump in.CG.IL phi_loop
variable k loop 0 36
#variable k loop 0 0
variable phi equal $k*10
variable phi equal 11*10

variable  vxx equal sin($(v_theta/180*PI))*cos($(v_phi/180*PI))
variable  vxx equal sin(0)*cos($(v_phi/180*PI))
variable  vxx equal sin(0)*cos(1.9198621771937625091)
variable  vzz equal sin($(v_theta/180*PI))*sin($(v_phi/180*PI))
variable  vzz equal sin(0)*sin($(v_phi/180*PI))
variable  vzz equal sin(0)*sin(1.9198621771937625091)
variable  vyy equal cos($(v_theta/180*PI))
variable  vyy equal cos(0)
#variable  vxx equal sin($(v_theta/180*PI))*cos($(v_phi/180*PI))
#variable  vyy equal sin($(v_theta/180*PI))*sin($(v_phi/180*PI))
#variable  vzz equal cos($(v_theta/180*PI))
variable  xx equal v_dist*v_vxx
variable  yy equal v_dist*v_vyy
variable  zz equal v_dist*v_vzz

set atom 1 x ${xx} y ${yy} z ${zz}
set atom 1 x -0 y ${yy} z ${zz}
set atom 1 x -0 y 3.8 z ${zz}
set atom 1 x -0 y 3.8 z 0
  1 settings made for x
  1 settings made for y
  1 settings made for z
fix      1 anion move linear ${vxx} ${vyy} ${vzz}
fix      1 anion move linear -0 ${vyy} ${vzz}
fix      1 anion move linear -0 1 ${vzz}
fix      1 anion move linear -0 1 0
run             150
MSM initialization ...
WARNING: Adjusting Coulombic cutoff for MSM, new cutoff = 144.125 (../msm.cpp:1054)
  using 12-bit tables for long-range coulomb (../kspace.cpp:321)
WARNING: For better accuracy use 'pair_modify table 0' (../kspace.cpp:342)
  3d grid size/proc = 1331
  estimated absolute RMS force accuracy = 1.43996e-05
  estimated relative force accuracy = 1e-06
  grid = 2 2 2
  order = 10
Per MPI rank memory allocation (min/avg/max) = 6.787 | 6.787 | 6.787 Mbytes
Step Temp PotEng KinEng E_bond Press Density 
    1650    38.754379    54.421447   0.01502819  0.014032127    715.95163 0.0013005393 
    1700    38.754379  -0.51029366   0.01502819  0.014032127    10.110726 0.0013005393 
    1800    38.754379  -0.19997815   0.01502819  0.014032127    10.435842 0.0013005393 
Loop time of 1.04733 on 1 procs for 150 steps with 4 atoms

Performance: 2474.862 ns/day, 0.010 hours/ns, 143.221 timesteps/s
100.0% CPU use with 1 MPI tasks x no OpenMP threads

MPI task timing breakdown:
Section |  min time  |  avg time  |  max time  |%varavg| %total
---------------------------------------------------------------
Pair    | 0.00029993 | 0.00029993 | 0.00029993 |   0.0 |  0.03
Bond    | 0.00010061 | 0.00010061 | 0.00010061 |   0.0 |  0.01
Kspace  | 1.0442     | 1.0442     | 1.0442     |   0.0 | 99.70
Neigh   | 7.7009e-05 | 7.7009e-05 | 7.7009e-05 |   0.0 |  0.01
Comm    | 4.0293e-05 | 4.0293e-05 | 4.0293e-05 |   0.0 |  0.00
Output  | 3.2187e-05 | 3.2187e-05 | 3.2187e-05 |   0.0 |  0.00
Modify  | 0.0024636  | 0.0024636  | 0.0024636  |   0.0 |  0.24
Other   |            | 0.0001256  |            |       |  0.01

Nlocal:    4 ave 4 max 4 min
Histogram: 1 0 0 0 0 0 0 0 0 0
Nghost:    0 ave 0 max 0 min
Histogram: 1 0 0 0 0 0 0 0 0 0
Neighs:    6 ave 6 max 6 min
Histogram: 1 0 0 0 0 0 0 0 0 0

Total # of neighbors = 6
Ave neighs/atom = 1.5
Ave special neighs/atom = 1.5
Neighbor list builds = 25
Dangerous builds = 0
#minimize 1.e-4 1.0e-6 100 1000
#run             1

next k
jump in.CG.IL phi_loop
variable k loop 0 36
#variable k loop 0 0
variable phi equal $k*10
variable phi equal 12*10

variable  vxx equal sin($(v_theta/180*PI))*cos($(v_phi/180*PI))
variable  vxx equal sin(0)*cos($(v_phi/180*PI))
variable  vxx equal sin(0)*cos(2.0943951023931952626)
variable  vzz equal sin($(v_theta/180*PI))*sin($(v_phi/180*PI))
variable  vzz equal sin(0)*sin($(v_phi/180*PI))
variable  vzz equal sin(0)*sin(2.0943951023931952626)
variable  vyy equal cos($(v_theta/180*PI))
variable  vyy equal cos(0)
#variable  vxx equal sin($(v_theta/180*PI))*cos($(v_phi/180*PI))
#variable  vyy equal sin($(v_theta/180*PI))*sin($(v_phi/180*PI))
#variable  vzz equal cos($(v_theta/180*PI))
variable  xx equal v_dist*v_vxx
variable  yy equal v_dist*v_vyy
variable  zz equal v_dist*v_vzz

set atom 1 x ${xx} y ${yy} z ${zz}
set atom 1 x -0 y ${yy} z ${zz}
set atom 1 x -0 y 3.8 z ${zz}
set atom 1 x -0 y 3.8 z 0
  1 settings made for x
  1 settings made for y
  1 settings made for z
fix      1 anion move linear ${vxx} ${vyy} ${vzz}
fix      1 anion move linear -0 ${vyy} ${vzz}
fix      1 anion move linear -0 1 ${vzz}
fix      1 anion move linear -0 1 0
run             150
MSM initialization ...
WARNING: Adjusting Coulombic cutoff for MSM, new cutoff = 144.125 (../msm.cpp:1054)
  using 12-bit tables for long-range coulomb (../kspace.cpp:321)
WARNING: For better accuracy use 'pair_modify table 0' (../kspace.cpp:342)
  3d grid size/proc = 1331
  estimated absolute RMS force accuracy = 1.43996e-05
  estimated relative force accuracy = 1e-06
  grid = 2 2 2
  order = 10
Per MPI rank memory allocation (min/avg/max) = 6.787 | 6.787 | 6.787 Mbytes
Step Temp PotEng KinEng E_bond Press Density 
    1800    38.754379    54.421447   0.01502819  0.014032127    715.95163 0.0013005393 
    1900    38.754379  -0.29015457   0.01502819  0.014032127     10.34178 0.0013005393 
    1950    38.754379  -0.19997815   0.01502819  0.014032127    10.435842 0.0013005393 
Loop time of 1.03177 on 1 procs for 150 steps with 4 atoms

Performance: 2512.180 ns/day, 0.010 hours/ns, 145.381 timesteps/s
100.0% CPU use with 1 MPI tasks x no OpenMP threads

MPI task timing breakdown:
Section |  min time  |  avg time  |  max time  |%varavg| %total
---------------------------------------------------------------
Pair    | 0.00027633 | 0.00027633 | 0.00027633 |   0.0 |  0.03
Bond    | 9.6321e-05 | 9.6321e-05 | 9.6321e-05 |   0.0 |  0.01
Kspace  | 1.0287     | 1.0287     | 1.0287     |   0.0 | 99.70
Neigh   | 5.6505e-05 | 5.6505e-05 | 5.6505e-05 |   0.0 |  0.01
Comm    | 4.3154e-05 | 4.3154e-05 | 4.3154e-05 |   0.0 |  0.00
Output  | 2.9087e-05 | 2.9087e-05 | 2.9087e-05 |   0.0 |  0.00
Modify  | 0.0024486  | 0.0024486  | 0.0024486  |   0.0 |  0.24
Other   |            | 0.0001004  |            |       |  0.01

Nlocal:    4 ave 4 max 4 min
Histogram: 1 0 0 0 0 0 0 0 0 0
Nghost:    0 ave 0 max 0 min
Histogram: 1 0 0 0 0 0 0 0 0 0
Neighs:    6 ave 6 max 6 min
Histogram: 1 0 0 0 0 0 0 0 0 0

Total # of neighbors = 6
Ave neighs/atom = 1.5
Ave special neighs/atom = 1.5
Neighbor list builds = 25
Dangerous builds = 0
#minimize 1.e-4 1.0e-6 100 1000
#run             1

next k
jump in.CG.IL phi_loop
variable k loop 0 36
#variable k loop 0 0
variable phi equal $k*10
variable phi equal 13*10

variable  vxx equal sin($(v_theta/180*PI))*cos($(v_phi/180*PI))
variable  vxx equal sin(0)*cos($(v_phi/180*PI))
variable  vxx equal sin(0)*cos(2.2689280275926284602)
variable  vzz equal sin($(v_theta/180*PI))*sin($(v_phi/180*PI))
variable  vzz equal sin(0)*sin($(v_phi/180*PI))
variable  vzz equal sin(0)*sin(2.2689280275926284602)
variable  vyy equal cos($(v_theta/180*PI))
variable  vyy equal cos(0)
#variable  vxx equal sin($(v_theta/180*PI))*cos($(v_phi/180*PI))
#variable  vyy equal sin($(v_theta/180*PI))*sin($(v_phi/180*PI))
#variable  vzz equal cos($(v_theta/180*PI))
variable  xx equal v_dist*v_vxx
variable  yy equal v_dist*v_vyy
variable  zz equal v_dist*v_vzz

set atom 1 x ${xx} y ${yy} z ${zz}
set atom 1 x -0 y ${yy} z ${zz}
set atom 1 x -0 y 3.8 z ${zz}
set atom 1 x -0 y 3.8 z 0
  1 settings made for x
  1 settings made for y
  1 settings made for z
fix      1 anion move linear ${vxx} ${vyy} ${vzz}
fix      1 anion move linear -0 ${vyy} ${vzz}
fix      1 anion move linear -0 1 ${vzz}
fix      1 anion move linear -0 1 0
run             150
MSM initialization ...
WARNING: Adjusting Coulombic cutoff for MSM, new cutoff = 144.125 (../msm.cpp:1054)
  using 12-bit tables for long-range coulomb (../kspace.cpp:321)
WARNING: For better accuracy use 'pair_modify table 0' (../kspace.cpp:342)
  3d grid size/proc = 1331
  estimated absolute RMS force accuracy = 1.43996e-05
  estimated relative force accuracy = 1e-06
  grid = 2 2 2
  order = 10
Per MPI rank memory allocation (min/avg/max) = 6.787 | 6.787 | 6.787 Mbytes
Step Temp PotEng KinEng E_bond Press Density 
    1950    38.754379    54.421447   0.01502819  0.014032127    715.95163 0.0013005393 
    2000    38.754379  -0.51029366   0.01502819  0.014032127    10.110726 0.0013005393 
    2100    38.754379  -0.19997815   0.01502819  0.014032127    10.435842 0.0013005393 
Loop time of 1.01984 on 1 procs for 150 steps with 4 atoms

Performance: 2541.580 ns/day, 0.009 hours/ns, 147.082 timesteps/s
100.0% CPU use with 1 MPI tasks x no OpenMP threads

MPI task timing breakdown:
Section |  min time  |  avg time  |  max time  |%varavg| %total
---------------------------------------------------------------
Pair    | 0.0002861  | 0.0002861  | 0.0002861  |   0.0 |  0.03
Bond    | 7.3195e-05 | 7.3195e-05 | 7.3195e-05 |   0.0 |  0.01
Kspace  | 1.0171     | 1.0171     | 1.0171     |   0.0 | 99.73
Neigh   | 4.3154e-05 | 4.3154e-05 | 4.3154e-05 |   0.0 |  0.00
Comm    | 3.7193e-05 | 3.7193e-05 | 3.7193e-05 |   0.0 |  0.00
Output  | 2.8849e-05 | 2.8849e-05 | 2.8849e-05 |   0.0 |  0.00
Modify  | 0.0021863  | 0.0021863  | 0.0021863  |   0.0 |  0.21
Other   |            | 8.535e-05  |            |       |  0.01

Nlocal:    4 ave 4 max 4 min
Histogram: 1 0 0 0 0 0 0 0 0 0
Nghost:    0 ave 0 max 0 min
Histogram: 1 0 0 0 0 0 0 0 0 0
Neighs:    6 ave 6 max 6 min
Histogram: 1 0 0 0 0 0 0 0 0 0

Total # of neighbors = 6
Ave neighs/atom = 1.5
Ave special neighs/atom = 1.5
Neighbor list builds = 25
Dangerous builds = 0
#minimize 1.e-4 1.0e-6 100 1000
#run             1

next k
jump in.CG.IL phi_loop
variable k loop 0 36
#variable k loop 0 0
variable phi equal $k*10
variable phi equal 14*10

variable  vxx equal sin($(v_theta/180*PI))*cos($(v_phi/180*PI))
variable  vxx equal sin(0)*cos($(v_phi/180*PI))
variable  vxx equal sin(0)*cos(2.4434609527920612138)
variable  vzz equal sin($(v_theta/180*PI))*sin($(v_phi/180*PI))
variable  vzz equal sin(0)*sin($(v_phi/180*PI))
variable  vzz equal sin(0)*sin(2.4434609527920612138)
variable  vyy equal cos($(v_theta/180*PI))
variable  vyy equal cos(0)
#variable  vxx equal sin($(v_theta/180*PI))*cos($(v_phi/180*PI))
#variable  vyy equal sin($(v_theta/180*PI))*sin($(v_phi/180*PI))
#variable  vzz equal cos($(v_theta/180*PI))
variable  xx equal v_dist*v_vxx
variable  yy equal v_dist*v_vyy
variable  zz equal v_dist*v_vzz

set atom 1 x ${xx} y ${yy} z ${zz}
set atom 1 x -0 y ${yy} z ${zz}
set atom 1 x -0 y 3.8 z ${zz}
set atom 1 x -0 y 3.8 z 0
  1 settings made for x
  1 settings made for y
  1 settings made for z
fix      1 anion move linear ${vxx} ${vyy} ${vzz}
fix      1 anion move linear -0 ${vyy} ${vzz}
fix      1 anion move linear -0 1 ${vzz}
fix      1 anion move linear -0 1 0
run             150
MSM initialization ...
WARNING: Adjusting Coulombic cutoff for MSM, new cutoff = 144.125 (../msm.cpp:1054)
  using 12-bit tables for long-range coulomb (../kspace.cpp:321)
WARNING: For better accuracy use 'pair_modify table 0' (../kspace.cpp:342)
  3d grid size/proc = 1331
  estimated absolute RMS force accuracy = 1.43996e-05
  estimated relative force accuracy = 1e-06
  grid = 2 2 2
  order = 10
Per MPI rank memory allocation (min/avg/max) = 6.787 | 6.787 | 6.787 Mbytes
Step Temp PotEng KinEng E_bond Press Density 
    2100    38.754379    54.421447   0.01502819  0.014032127    715.95163 0.0013005393 
    2200    38.754379  -0.29015457   0.01502819  0.014032127     10.34178 0.0013005393 
    2250    38.754379  -0.19997815   0.01502819  0.014032127    10.435842 0.0013005393 
Loop time of 1.02708 on 1 procs for 150 steps with 4 atoms

Performance: 2523.669 ns/day, 0.010 hours/ns, 146.046 timesteps/s
99.6% CPU use with 1 MPI tasks x no OpenMP threads

MPI task timing breakdown:
Section |  min time  |  avg time  |  max time  |%varavg| %total
---------------------------------------------------------------
Pair    | 0.00027776 | 0.00027776 | 0.00027776 |   0.0 |  0.03
Bond    | 9.1076e-05 | 9.1076e-05 | 9.1076e-05 |   0.0 |  0.01
Kspace  | 1.0241     | 1.0241     | 1.0241     |   0.0 | 99.71
Neigh   | 4.5061e-05 | 4.5061e-05 | 4.5061e-05 |   0.0 |  0.00
Comm    | 2.8372e-05 | 2.8372e-05 | 2.8372e-05 |   0.0 |  0.00
Output  | 3.0041e-05 | 3.0041e-05 | 3.0041e-05 |   0.0 |  0.00
Modify  | 0.0023756  | 0.0023756  | 0.0023756  |   0.0 |  0.23
Other   |            | 9.966e-05  |            |       |  0.01

Nlocal:    4 ave 4 max 4 min
Histogram: 1 0 0 0 0 0 0 0 0 0
Nghost:    0 ave 0 max 0 min
Histogram: 1 0 0 0 0 0 0 0 0 0
Neighs:    6 ave 6 max 6 min
Histogram: 1 0 0 0 0 0 0 0 0 0

Total # of neighbors = 6
Ave neighs/atom = 1.5
Ave special neighs/atom = 1.5
Neighbor list builds = 25
Dangerous builds = 0
#minimize 1.e-4 1.0e-6 100 1000
#run             1

next k
jump in.CG.IL phi_loop
variable k loop 0 36
#variable k loop 0 0
variable phi equal $k*10
variable phi equal 15*10

variable  vxx equal sin($(v_theta/180*PI))*cos($(v_phi/180*PI))
variable  vxx equal sin(0)*cos($(v_phi/180*PI))
variable  vxx equal sin(0)*cos(2.6179938779914944114)
variable  vzz equal sin($(v_theta/180*PI))*sin($(v_phi/180*PI))
variable  vzz equal sin(0)*sin($(v_phi/180*PI))
variable  vzz equal sin(0)*sin(2.6179938779914944114)
variable  vyy equal cos($(v_theta/180*PI))
variable  vyy equal cos(0)
#variable  vxx equal sin($(v_theta/180*PI))*cos($(v_phi/180*PI))
#variable  vyy equal sin($(v_theta/180*PI))*sin($(v_phi/180*PI))
#variable  vzz equal cos($(v_theta/180*PI))
variable  xx equal v_dist*v_vxx
variable  yy equal v_dist*v_vyy
variable  zz equal v_dist*v_vzz

set atom 1 x ${xx} y ${yy} z ${zz}
set atom 1 x -0 y ${yy} z ${zz}
set atom 1 x -0 y 3.8 z ${zz}
set atom 1 x -0 y 3.8 z 0
  1 settings made for x
  1 settings made for y
  1 settings made for z
fix      1 anion move linear ${vxx} ${vyy} ${vzz}
fix      1 anion move linear -0 ${vyy} ${vzz}
fix      1 anion move linear -0 1 ${vzz}
fix      1 anion move linear -0 1 0
run             150
MSM initialization ...
WARNING: Adjusting Coulombic cutoff for MSM, new cutoff = 144.125 (../msm.cpp:1054)
  using 12-bit tables for long-range coulomb (../kspace.cpp:321)
WARNING: For better accuracy use 'pair_modify table 0' (../kspace.cpp:342)
  3d grid size/proc = 1331
  estimated absolute RMS force accuracy = 1.43996e-05
  estimated relative force accuracy = 1e-06
  grid = 2 2 2
  order = 10
Per MPI rank memory allocation (min/avg/max) = 6.787 | 6.787 | 6.787 Mbytes
Step Temp PotEng KinEng E_bond Press Density 
    2250    38.754379    54.421447   0.01502819  0.014032127    715.95163 0.0013005393 
    2300    38.754379  -0.51029366   0.01502819  0.014032127    10.110726 0.0013005393 
    2400    38.754379  -0.19997815   0.01502819  0.014032127    10.435842 0.0013005393 
Loop time of 1.0201 on 1 procs for 150 steps with 4 atoms

Performance: 2540.937 ns/day, 0.009 hours/ns, 147.045 timesteps/s
100.0% CPU use with 1 MPI tasks x no OpenMP threads

MPI task timing breakdown:
Section |  min time  |  avg time  |  max time  |%varavg| %total
---------------------------------------------------------------
Pair    | 0.00028205 | 0.00028205 | 0.00028205 |   0.0 |  0.03
Bond    | 8.6308e-05 | 8.6308e-05 | 8.6308e-05 |   0.0 |  0.01
Kspace  | 1.0173     | 1.0173     | 1.0173     |   0.0 | 99.72
Neigh   | 4.6253e-05 | 4.6253e-05 | 4.6253e-05 |   0.0 |  0.00
Comm    | 3.4332e-05 | 3.4332e-05 | 3.4332e-05 |   0.0 |  0.00
Output  | 2.9802e-05 | 2.9802e-05 | 2.9802e-05 |   0.0 |  0.00
Modify  | 0.0022814  | 0.0022814  | 0.0022814  |   0.0 |  0.22
Other   |            | 8.512e-05  |            |       |  0.01

Nlocal:    4 ave 4 max 4 min
Histogram: 1 0 0 0 0 0 0 0 0 0
Nghost:    0 ave 0 max 0 min
Histogram: 1 0 0 0 0 0 0 0 0 0
Neighs:    6 ave 6 max 6 min
Histogram: 1 0 0 0 0 0 0 0 0 0

Total # of neighbors = 6
Ave neighs/atom = 1.5
Ave special neighs/atom = 1.5
Neighbor list builds = 25
Dangerous builds = 0
#minimize 1.e-4 1.0e-6 100 1000
#run             1

next k
jump in.CG.IL phi_loop
variable k loop 0 36
#variable k loop 0 0
variable phi equal $k*10
variable phi equal 16*10

variable  vxx equal sin($(v_theta/180*PI))*cos($(v_phi/180*PI))
variable  vxx equal sin(0)*cos($(v_phi/180*PI))
variable  vxx equal sin(0)*cos(2.7925268031909271649)
variable  vzz equal sin($(v_theta/180*PI))*sin($(v_phi/180*PI))
variable  vzz equal sin(0)*sin($(v_phi/180*PI))
variable  vzz equal sin(0)*sin(2.7925268031909271649)
variable  vyy equal cos($(v_theta/180*PI))
variable  vyy equal cos(0)
#variable  vxx equal sin($(v_theta/180*PI))*cos($(v_phi/180*PI))
#variable  vyy equal sin($(v_theta/180*PI))*sin($(v_phi/180*PI))
#variable  vzz equal cos($(v_theta/180*PI))
variable  xx equal v_dist*v_vxx
variable  yy equal v_dist*v_vyy
variable  zz equal v_dist*v_vzz

set atom 1 x ${xx} y ${yy} z ${zz}
set atom 1 x -0 y ${yy} z ${zz}
set atom 1 x -0 y 3.8 z ${zz}
set atom 1 x -0 y 3.8 z 0
  1 settings made for x
  1 settings made for y
  1 settings made for z
fix      1 anion move linear ${vxx} ${vyy} ${vzz}
fix      1 anion move linear -0 ${vyy} ${vzz}
fix      1 anion move linear -0 1 ${vzz}
fix      1 anion move linear -0 1 0
run             150
MSM initialization ...
WARNING: Adjusting Coulombic cutoff for MSM, new cutoff = 144.125 (../msm.cpp:1054)
  using 12-bit tables for long-range coulomb (../kspace.cpp:321)
WARNING: For better accuracy use 'pair_modify table 0' (../kspace.cpp:342)
  3d grid size/proc = 1331
  estimated absolute RMS force accuracy = 1.43996e-05
  estimated relative force accuracy = 1e-06
  grid = 2 2 2
  order = 10
Per MPI rank memory allocation (min/avg/max) = 6.787 | 6.787 | 6.787 Mbytes
Step Temp PotEng KinEng E_bond Press Density 
    2400    38.754379    54.421447   0.01502819  0.014032127    715.95163 0.0013005393 
    2500    38.754379  -0.29015457   0.01502819  0.014032127     10.34178 0.0013005393 
    2550    38.754379  -0.19997815   0.01502819  0.014032127    10.435842 0.0013005393 
Loop time of 1.02262 on 1 procs for 150 steps with 4 atoms

Performance: 2534.668 ns/day, 0.009 hours/ns, 146.682 timesteps/s
100.0% CPU use with 1 MPI tasks x no OpenMP threads

MPI task timing breakdown:
Section |  min time  |  avg time  |  max time  |%varavg| %total
---------------------------------------------------------------
Pair    | 0.00026155 | 0.00026155 | 0.00026155 |   0.0 |  0.03
Bond    | 7.7963e-05 | 7.7963e-05 | 7.7963e-05 |   0.0 |  0.01
Kspace  | 1.0199     | 1.0199     | 1.0199     |   0.0 | 99.74
Neigh   | 3.9577e-05 | 3.9577e-05 | 3.9577e-05 |   0.0 |  0.00
Comm    | 2.861e-05  | 2.861e-05  | 2.861e-05  |   0.0 |  0.00
Output  | 2.5988e-05 | 2.5988e-05 | 2.5988e-05 |   0.0 |  0.00
Modify  | 0.0021625  | 0.0021625  | 0.0021625  |   0.0 |  0.21
Other   |            | 8.631e-05  |            |       |  0.01

Nlocal:    4 ave 4 max 4 min
Histogram: 1 0 0 0 0 0 0 0 0 0
Nghost:    0 ave 0 max 0 min
Histogram: 1 0 0 0 0 0 0 0 0 0
Neighs:    6 ave 6 max 6 min
Histogram: 1 0 0 0 0 0 0 0 0 0

Total # of neighbors = 6
Ave neighs/atom = 1.5
Ave special neighs/atom = 1.5
Neighbor list builds = 25
Dangerous builds = 0
#minimize 1.e-4 1.0e-6 100 1000
#run             1

next k
jump in.CG.IL phi_loop
variable k loop 0 36
#variable k loop 0 0
variable phi equal $k*10
variable phi equal 17*10

variable  vxx equal sin($(v_theta/180*PI))*cos($(v_phi/180*PI))
variable  vxx equal sin(0)*cos($(v_phi/180*PI))
variable  vxx equal sin(0)*cos(2.9670597283903599184)
variable  vzz equal sin($(v_theta/180*PI))*sin($(v_phi/180*PI))
variable  vzz equal sin(0)*sin($(v_phi/180*PI))
variable  vzz equal sin(0)*sin(2.9670597283903599184)
variable  vyy equal cos($(v_theta/180*PI))
variable  vyy equal cos(0)
#variable  vxx equal sin($(v_theta/180*PI))*cos($(v_phi/180*PI))
#variable  vyy equal sin($(v_theta/180*PI))*sin($(v_phi/180*PI))
#variable  vzz equal cos($(v_theta/180*PI))
variable  xx equal v_dist*v_vxx
variable  yy equal v_dist*v_vyy
variable  zz equal v_dist*v_vzz

set atom 1 x ${xx} y ${yy} z ${zz}
set atom 1 x -0 y ${yy} z ${zz}
set atom 1 x -0 y 3.8 z ${zz}
set atom 1 x -0 y 3.8 z 0
  1 settings made for x
  1 settings made for y
  1 settings made for z
fix      1 anion move linear ${vxx} ${vyy} ${vzz}
fix      1 anion move linear -0 ${vyy} ${vzz}
fix      1 anion move linear -0 1 ${vzz}
fix      1 anion move linear -0 1 0
run             150
MSM initialization ...
WARNING: Adjusting Coulombic cutoff for MSM, new cutoff = 144.125 (../msm.cpp:1054)
  using 12-bit tables for long-range coulomb (../kspace.cpp:321)
WARNING: For better accuracy use 'pair_modify table 0' (../kspace.cpp:342)
  3d grid size/proc = 1331
  estimated absolute RMS force accuracy = 1.43996e-05
  estimated relative force accuracy = 1e-06
  grid = 2 2 2
  order = 10
Per MPI rank memory allocation (min/avg/max) = 6.787 | 6.787 | 6.787 Mbytes
Step Temp PotEng KinEng E_bond Press Density 
    2550    38.754379    54.421447   0.01502819  0.014032127    715.95163 0.0013005393 
    2600    38.754379  -0.51029366   0.01502819  0.014032127    10.110726 0.0013005393 
    2700    38.754379  -0.19997815   0.01502819  0.014032127    10.435842 0.0013005393 
Loop time of 1.0144 on 1 procs for 150 steps with 4 atoms

Performance: 2555.210 ns/day, 0.009 hours/ns, 147.871 timesteps/s
100.0% CPU use with 1 MPI tasks x no OpenMP threads

MPI task timing breakdown:
Section |  min time  |  avg time  |  max time  |%varavg| %total
---------------------------------------------------------------
Pair    | 0.00026369 | 0.00026369 | 0.00026369 |   0.0 |  0.03
Bond    | 8.0824e-05 | 8.0824e-05 | 8.0824e-05 |   0.0 |  0.01
Kspace  | 1.0117     | 1.0117     | 1.0117     |   0.0 | 99.74
Neigh   | 4.6253e-05 | 4.6253e-05 | 4.6253e-05 |   0.0 |  0.00
Comm    | 3.5763e-05 | 3.5763e-05 | 3.5763e-05 |   0.0 |  0.00
Output  | 2.7657e-05 | 2.7657e-05 | 2.7657e-05 |   0.0 |  0.00
Modify  | 0.0021522  | 0.0021522  | 0.0021522  |   0.0 |  0.21
Other   |            | 7.892e-05  |            |       |  0.01

Nlocal:    4 ave 4 max 4 min
Histogram: 1 0 0 0 0 0 0 0 0 0
Nghost:    0 ave 0 max 0 min
Histogram: 1 0 0 0 0 0 0 0 0 0
Neighs:    6 ave 6 max 6 min
Histogram: 1 0 0 0 0 0 0 0 0 0

Total # of neighbors = 6
Ave neighs/atom = 1.5
Ave special neighs/atom = 1.5
Neighbor list builds = 25
Dangerous builds = 0
#minimize 1.e-4 1.0e-6 100 1000
#run             1

next k
jump in.CG.IL phi_loop
variable k loop 0 36
#variable k loop 0 0
variable phi equal $k*10
variable phi equal 18*10

variable  vxx equal sin($(v_theta/180*PI))*cos($(v_phi/180*PI))
variable  vxx equal sin(0)*cos($(v_phi/180*PI))
variable  vxx equal sin(0)*cos(3.141592653589793116)
variable  vzz equal sin($(v_theta/180*PI))*sin($(v_phi/180*PI))
variable  vzz equal sin(0)*sin($(v_phi/180*PI))
variable  vzz equal sin(0)*sin(3.141592653589793116)
variable  vyy equal cos($(v_theta/180*PI))
variable  vyy equal cos(0)
#variable  vxx equal sin($(v_theta/180*PI))*cos($(v_phi/180*PI))
#variable  vyy equal sin($(v_theta/180*PI))*sin($(v_phi/180*PI))
#variable  vzz equal cos($(v_theta/180*PI))
variable  xx equal v_dist*v_vxx
variable  yy equal v_dist*v_vyy
variable  zz equal v_dist*v_vzz

set atom 1 x ${xx} y ${yy} z ${zz}
set atom 1 x -0 y ${yy} z ${zz}
set atom 1 x -0 y 3.8 z ${zz}
set atom 1 x -0 y 3.8 z 0
  1 settings made for x
  1 settings made for y
  1 settings made for z
fix      1 anion move linear ${vxx} ${vyy} ${vzz}
fix      1 anion move linear -0 ${vyy} ${vzz}
fix      1 anion move linear -0 1 ${vzz}
fix      1 anion move linear -0 1 0
run             150
MSM initialization ...
WARNING: Adjusting Coulombic cutoff for MSM, new cutoff = 144.125 (../msm.cpp:1054)
  using 12-bit tables for long-range coulomb (../kspace.cpp:321)
WARNING: For better accuracy use 'pair_modify table 0' (../kspace.cpp:342)
  3d grid size/proc = 1331
  estimated absolute RMS force accuracy = 1.43996e-05
  estimated relative force accuracy = 1e-06
  grid = 2 2 2
  order = 10
Per MPI rank memory allocation (min/avg/max) = 6.787 | 6.787 | 6.787 Mbytes
Step Temp PotEng KinEng E_bond Press Density 
    2700    38.754379    54.421447   0.01502819  0.014032127    715.95163 0.0013005393 
    2800    38.754379  -0.29015457   0.01502819  0.014032127     10.34178 0.0013005393 
    2850    38.754379  -0.19997815   0.01502819  0.014032127    10.435842 0.0013005393 
Loop time of 1.01364 on 1 procs for 150 steps with 4 atoms

Performance: 2557.116 ns/day, 0.009 hours/ns, 147.981 timesteps/s
100.0% CPU use with 1 MPI tasks x no OpenMP threads

MPI task timing breakdown:
Section |  min time  |  avg time  |  max time  |%varavg| %total
---------------------------------------------------------------
Pair    | 0.00027919 | 0.00027919 | 0.00027919 |   0.0 |  0.03
Bond    | 7.7724e-05 | 7.7724e-05 | 7.7724e-05 |   0.0 |  0.01
Kspace  | 1.0109     | 1.0109     | 1.0109     |   0.0 | 99.73
Neigh   | 4.6968e-05 | 4.6968e-05 | 4.6968e-05 |   0.0 |  0.00
Comm    | 2.9564e-05 | 2.9564e-05 | 2.9564e-05 |   0.0 |  0.00
Output  | 2.6941e-05 | 2.6941e-05 | 2.6941e-05 |   0.0 |  0.00
Modify  | 0.0021808  | 0.0021808  | 0.0021808  |   0.0 |  0.22
Other   |            | 7.391e-05  |            |       |  0.01

Nlocal:    4 ave 4 max 4 min
Histogram: 1 0 0 0 0 0 0 0 0 0
Nghost:    0 ave 0 max 0 min
Histogram: 1 0 0 0 0 0 0 0 0 0
Neighs:    6 ave 6 max 6 min
Histogram: 1 0 0 0 0 0 0 0 0 0

Total # of neighbors = 6
Ave neighs/atom = 1.5
Ave special neighs/atom = 1.5
Neighbor list builds = 25
Dangerous builds = 0
#minimize 1.e-4 1.0e-6 100 1000
#run             1

next k
jump in.CG.IL phi_loop
variable k loop 0 36
#variable k loop 0 0
variable phi equal $k*10
variable phi equal 19*10

variable  vxx equal sin($(v_theta/180*PI))*cos($(v_phi/180*PI))
variable  vxx equal sin(0)*cos($(v_phi/180*PI))
variable  vxx equal sin(0)*cos(3.3161255787892263136)
variable  vzz equal sin($(v_theta/180*PI))*sin($(v_phi/180*PI))
variable  vzz equal sin(0)*sin($(v_phi/180*PI))
variable  vzz equal sin(0)*sin(3.3161255787892263136)
variable  vyy equal cos($(v_theta/180*PI))
variable  vyy equal cos(0)
#variable  vxx equal sin($(v_theta/180*PI))*cos($(v_phi/180*PI))
#variable  vyy equal sin($(v_theta/180*PI))*sin($(v_phi/180*PI))
#variable  vzz equal cos($(v_theta/180*PI))
variable  xx equal v_dist*v_vxx
variable  yy equal v_dist*v_vyy
variable  zz equal v_dist*v_vzz

set atom 1 x ${xx} y ${yy} z ${zz}
set atom 1 x -0 y ${yy} z ${zz}
set atom 1 x -0 y 3.8 z ${zz}
set atom 1 x -0 y 3.8 z -0
  1 settings made for x
  1 settings made for y
  1 settings made for z
fix      1 anion move linear ${vxx} ${vyy} ${vzz}
fix      1 anion move linear -0 ${vyy} ${vzz}
fix      1 anion move linear -0 1 ${vzz}
fix      1 anion move linear -0 1 -0
run             150
MSM initialization ...
WARNING: Adjusting Coulombic cutoff for MSM, new cutoff = 144.125 (../msm.cpp:1054)
  using 12-bit tables for long-range coulomb (../kspace.cpp:321)
WARNING: For better accuracy use 'pair_modify table 0' (../kspace.cpp:342)
  3d grid size/proc = 1331
  estimated absolute RMS force accuracy = 1.43996e-05
  estimated relative force accuracy = 1e-06
  grid = 2 2 2
  order = 10
Per MPI rank memory allocation (min/avg/max) = 6.787 | 6.787 | 6.787 Mbytes
Step Temp PotEng KinEng E_bond Press Density 
    2850    38.754379    54.421447   0.01502819  0.014032127    715.95163 0.0013005393 
    2900    38.754379  -0.51029366   0.01502819  0.014032127    10.110726 0.0013005393 
    3000    38.754379  -0.19997815   0.01502819  0.014032127    10.435842 0.0013005393 
Loop time of 1.01357 on 1 procs for 150 steps with 4 atoms

Performance: 2557.285 ns/day, 0.009 hours/ns, 147.991 timesteps/s
100.0% CPU use with 1 MPI tasks x no OpenMP threads

MPI task timing breakdown:
Section |  min time  |  avg time  |  max time  |%varavg| %total
---------------------------------------------------------------
Pair    | 0.00028443 | 0.00028443 | 0.00028443 |   0.0 |  0.03
Bond    | 7.2718e-05 | 7.2718e-05 | 7.2718e-05 |   0.0 |  0.01
Kspace  | 1.0108     | 1.0108     | 1.0108     |   0.0 | 99.72
Neigh   | 4.53e-05   | 4.53e-05   | 4.53e-05   |   0.0 |  0.00
Comm    | 3.4094e-05 | 3.4094e-05 | 3.4094e-05 |   0.0 |  0.00
Output  | 2.718e-05  | 2.718e-05  | 2.718e-05  |   0.0 |  0.00
Modify  | 0.0022428  | 0.0022428  | 0.0022428  |   0.0 |  0.22
Other   |            | 8.273e-05  |            |       |  0.01

Nlocal:    4 ave 4 max 4 min
Histogram: 1 0 0 0 0 0 0 0 0 0
Nghost:    0 ave 0 max 0 min
Histogram: 1 0 0 0 0 0 0 0 0 0
Neighs:    6 ave 6 max 6 min
Histogram: 1 0 0 0 0 0 0 0 0 0

Total # of neighbors = 6
Ave neighs/atom = 1.5
Ave special neighs/atom = 1.5
Neighbor list builds = 25
Dangerous builds = 0
#minimize 1.e-4 1.0e-6 100 1000
#run             1

next k
jump in.CG.IL phi_loop
variable k loop 0 36
#variable k loop 0 0
variable phi equal $k*10
variable phi equal 20*10

variable  vxx equal sin($(v_theta/180*PI))*cos($(v_phi/180*PI))
variable  vxx equal sin(0)*cos($(v_phi/180*PI))
variable  vxx equal sin(0)*cos(3.4906585039886590671)
variable  vzz equal sin($(v_theta/180*PI))*sin($(v_phi/180*PI))
variable  vzz equal sin(0)*sin($(v_phi/180*PI))
variable  vzz equal sin(0)*sin(3.4906585039886590671)
variable  vyy equal cos($(v_theta/180*PI))
variable  vyy equal cos(0)
#variable  vxx equal sin($(v_theta/180*PI))*cos($(v_phi/180*PI))
#variable  vyy equal sin($(v_theta/180*PI))*sin($(v_phi/180*PI))
#variable  vzz equal cos($(v_theta/180*PI))
variable  xx equal v_dist*v_vxx
variable  yy equal v_dist*v_vyy
variable  zz equal v_dist*v_vzz

set atom 1 x ${xx} y ${yy} z ${zz}
set atom 1 x -0 y ${yy} z ${zz}
set atom 1 x -0 y 3.8 z ${zz}
set atom 1 x -0 y 3.8 z -0
  1 settings made for x
  1 settings made for y
  1 settings made for z
fix      1 anion move linear ${vxx} ${vyy} ${vzz}
fix      1 anion move linear -0 ${vyy} ${vzz}
fix      1 anion move linear -0 1 ${vzz}
fix      1 anion move linear -0 1 -0
run             150
MSM initialization ...
WARNING: Adjusting Coulombic cutoff for MSM, new cutoff = 144.125 (../msm.cpp:1054)
  using 12-bit tables for long-range coulomb (../kspace.cpp:321)
WARNING: For better accuracy use 'pair_modify table 0' (../kspace.cpp:342)
  3d grid size/proc = 1331
  estimated absolute RMS force accuracy = 1.43996e-05
  estimated relative force accuracy = 1e-06
  grid = 2 2 2
  order = 10
Per MPI rank memory allocation (min/avg/max) = 6.787 | 6.787 | 6.787 Mbytes
Step Temp PotEng KinEng E_bond Press Density 
    3000    38.754379    54.421447   0.01502819  0.014032127    715.95163 0.0013005393 
    3100    38.754379  -0.29015457   0.01502819  0.014032127     10.34178 0.0013005393 
    3150    38.754379  -0.19997815   0.01502819  0.014032127    10.435842 0.0013005393 
Loop time of 1.01856 on 1 procs for 150 steps with 4 atoms

Performance: 2544.779 ns/day, 0.009 hours/ns, 147.267 timesteps/s
100.0% CPU use with 1 MPI tasks x no OpenMP threads

MPI task timing breakdown:
Section |  min time  |  avg time  |  max time  |%varavg| %total
---------------------------------------------------------------
Pair    | 0.00023842 | 0.00023842 | 0.00023842 |   0.0 |  0.02
Bond    | 8.5354e-05 | 8.5354e-05 | 8.5354e-05 |   0.0 |  0.01
Kspace  | 1.0159     | 1.0159     | 1.0159     |   0.0 | 99.74
Neigh   | 4.1962e-05 | 4.1962e-05 | 4.1962e-05 |   0.0 |  0.00
Comm    | 2.3603e-05 | 2.3603e-05 | 2.3603e-05 |   0.0 |  0.00
Output  | 2.4796e-05 | 2.4796e-05 | 2.4796e-05 |   0.0 |  0.00
Modify  | 0.0021534  | 0.0021534  | 0.0021534  |   0.0 |  0.21
Other   |            | 8.726e-05  |            |       |  0.01

Nlocal:    4 ave 4 max 4 min
Histogram: 1 0 0 0 0 0 0 0 0 0
Nghost:    0 ave 0 max 0 min
Histogram: 1 0 0 0 0 0 0 0 0 0
Neighs:    6 ave 6 max 6 min
Histogram: 1 0 0 0 0 0 0 0 0 0

Total # of neighbors = 6
Ave neighs/atom = 1.5
Ave special neighs/atom = 1.5
Neighbor list builds = 25
Dangerous builds = 0
#minimize 1.e-4 1.0e-6 100 1000
#run             1

next k
jump in.CG.IL phi_loop
variable k loop 0 36
#variable k loop 0 0
variable phi equal $k*10
variable phi equal 21*10

variable  vxx equal sin($(v_theta/180*PI))*cos($(v_phi/180*PI))
variable  vxx equal sin(0)*cos($(v_phi/180*PI))
variable  vxx equal sin(0)*cos(3.6651914291880922647)
variable  vzz equal sin($(v_theta/180*PI))*sin($(v_phi/180*PI))
variable  vzz equal sin(0)*sin($(v_phi/180*PI))
variable  vzz equal sin(0)*sin(3.6651914291880922647)
variable  vyy equal cos($(v_theta/180*PI))
variable  vyy equal cos(0)
#variable  vxx equal sin($(v_theta/180*PI))*cos($(v_phi/180*PI))
#variable  vyy equal sin($(v_theta/180*PI))*sin($(v_phi/180*PI))
#variable  vzz equal cos($(v_theta/180*PI))
variable  xx equal v_dist*v_vxx
variable  yy equal v_dist*v_vyy
variable  zz equal v_dist*v_vzz

set atom 1 x ${xx} y ${yy} z ${zz}
set atom 1 x -0 y ${yy} z ${zz}
set atom 1 x -0 y 3.8 z ${zz}
set atom 1 x -0 y 3.8 z -0
  1 settings made for x
  1 settings made for y
  1 settings made for z
fix      1 anion move linear ${vxx} ${vyy} ${vzz}
fix      1 anion move linear -0 ${vyy} ${vzz}
fix      1 anion move linear -0 1 ${vzz}
fix      1 anion move linear -0 1 -0
run             150
MSM initialization ...
WARNING: Adjusting Coulombic cutoff for MSM, new cutoff = 144.125 (../msm.cpp:1054)
  using 12-bit tables for long-range coulomb (../kspace.cpp:321)
WARNING: For better accuracy use 'pair_modify table 0' (../kspace.cpp:342)
  3d grid size/proc = 1331
  estimated absolute RMS force accuracy = 1.43996e-05
  estimated relative force accuracy = 1e-06
  grid = 2 2 2
  order = 10
Per MPI rank memory allocation (min/avg/max) = 6.787 | 6.787 | 6.787 Mbytes
Step Temp PotEng KinEng E_bond Press Density 
    3150    38.754379    54.421447   0.01502819  0.014032127    715.95163 0.0013005393 
    3200    38.754379  -0.51029366   0.01502819  0.014032127    10.110726 0.0013005393 
    3300    38.754379  -0.19997815   0.01502819  0.014032127    10.435842 0.0013005393 
Loop time of 1.0178 on 1 procs for 150 steps with 4 atoms

Performance: 2546.659 ns/day, 0.009 hours/ns, 147.376 timesteps/s
100.0% CPU use with 1 MPI tasks x no OpenMP threads

MPI task timing breakdown:
Section |  min time  |  avg time  |  max time  |%varavg| %total
---------------------------------------------------------------
Pair    | 0.00028181 | 0.00028181 | 0.00028181 |   0.0 |  0.03
Bond    | 8.1062e-05 | 8.1062e-05 | 8.1062e-05 |   0.0 |  0.01
Kspace  | 1.0151     | 1.0151     | 1.0151     |   0.0 | 99.73
Neigh   | 4.4584e-05 | 4.4584e-05 | 4.4584e-05 |   0.0 |  0.00
Comm    | 3.2902e-05 | 3.2902e-05 | 3.2902e-05 |   0.0 |  0.00
Output  | 2.8133e-05 | 2.8133e-05 | 2.8133e-05 |   0.0 |  0.00
Modify  | 0.0021784  | 0.0021784  | 0.0021784  |   0.0 |  0.21
Other   |            | 8.345e-05  |            |       |  0.01

Nlocal:    4 ave 4 max 4 min
Histogram: 1 0 0 0 0 0 0 0 0 0
Nghost:    0 ave 0 max 0 min
Histogram: 1 0 0 0 0 0 0 0 0 0
Neighs:    6 ave 6 max 6 min
Histogram: 1 0 0 0 0 0 0 0 0 0

Total # of neighbors = 6
Ave neighs/atom = 1.5
Ave special neighs/atom = 1.5
Neighbor list builds = 25
Dangerous builds = 0
#minimize 1.e-4 1.0e-6 100 1000
#run             1

next k
jump in.CG.IL phi_loop
variable k loop 0 36
#variable k loop 0 0
variable phi equal $k*10
variable phi equal 22*10

variable  vxx equal sin($(v_theta/180*PI))*cos($(v_phi/180*PI))
variable  vxx equal sin(0)*cos($(v_phi/180*PI))
variable  vxx equal sin(0)*cos(3.8397243543875250182)
variable  vzz equal sin($(v_theta/180*PI))*sin($(v_phi/180*PI))
variable  vzz equal sin(0)*sin($(v_phi/180*PI))
variable  vzz equal sin(0)*sin(3.8397243543875250182)
variable  vyy equal cos($(v_theta/180*PI))
variable  vyy equal cos(0)
#variable  vxx equal sin($(v_theta/180*PI))*cos($(v_phi/180*PI))
#variable  vyy equal sin($(v_theta/180*PI))*sin($(v_phi/180*PI))
#variable  vzz equal cos($(v_theta/180*PI))
variable  xx equal v_dist*v_vxx
variable  yy equal v_dist*v_vyy
variable  zz equal v_dist*v_vzz

set atom 1 x ${xx} y ${yy} z ${zz}
set atom 1 x -0 y ${yy} z ${zz}
set atom 1 x -0 y 3.8 z ${zz}
set atom 1 x -0 y 3.8 z -0
  1 settings made for x
  1 settings made for y
  1 settings made for z
fix      1 anion move linear ${vxx} ${vyy} ${vzz}
fix      1 anion move linear -0 ${vyy} ${vzz}
fix      1 anion move linear -0 1 ${vzz}
fix      1 anion move linear -0 1 -0
run             150
MSM initialization ...
WARNING: Adjusting Coulombic cutoff for MSM, new cutoff = 144.125 (../msm.cpp:1054)
  using 12-bit tables for long-range coulomb (../kspace.cpp:321)
WARNING: For better accuracy use 'pair_modify table 0' (../kspace.cpp:342)
  3d grid size/proc = 1331
  estimated absolute RMS force accuracy = 1.43996e-05
  estimated relative force accuracy = 1e-06
  grid = 2 2 2
  order = 10
Per MPI rank memory allocation (min/avg/max) = 6.787 | 6.787 | 6.787 Mbytes
Step Temp PotEng KinEng E_bond Press Density 
    3300    38.754379    54.421447   0.01502819  0.014032127    715.95163 0.0013005393 
    3400    38.754379  -0.29015457   0.01502819  0.014032127     10.34178 0.0013005393 
    3450    38.754379  -0.19997815   0.01502819  0.014032127    10.435842 0.0013005393 
Loop time of 1.01545 on 1 procs for 150 steps with 4 atoms

Performance: 2552.553 ns/day, 0.009 hours/ns, 147.717 timesteps/s
100.0% CPU use with 1 MPI tasks x no OpenMP threads

MPI task timing breakdown:
Section |  min time  |  avg time  |  max time  |%varavg| %total
---------------------------------------------------------------
Pair    | 0.00026178 | 0.00026178 | 0.00026178 |   0.0 |  0.03
Bond    | 7.9632e-05 | 7.9632e-05 | 7.9632e-05 |   0.0 |  0.01
Kspace  | 1.0126     | 1.0126     | 1.0126     |   0.0 | 99.72
Neigh   | 4.6253e-05 | 4.6253e-05 | 4.6253e-05 |   0.0 |  0.00
Comm    | 3.8862e-05 | 3.8862e-05 | 3.8862e-05 |   0.0 |  0.00
Output  | 2.5749e-05 | 2.5749e-05 | 2.5749e-05 |   0.0 |  0.00
Modify  | 0.0022733  | 0.0022733  | 0.0022733  |   0.0 |  0.22
Other   |            | 8.631e-05  |            |       |  0.01

Nlocal:    4 ave 4 max 4 min
Histogram: 1 0 0 0 0 0 0 0 0 0
Nghost:    0 ave 0 max 0 min
Histogram: 1 0 0 0 0 0 0 0 0 0
Neighs:    6 ave 6 max 6 min
Histogram: 1 0 0 0 0 0 0 0 0 0

Total # of neighbors = 6
Ave neighs/atom = 1.5
Ave special neighs/atom = 1.5
Neighbor list builds = 25
Dangerous builds = 0
#minimize 1.e-4 1.0e-6 100 1000
#run             1

next k
jump in.CG.IL phi_loop
variable k loop 0 36
#variable k loop 0 0
variable phi equal $k*10
variable phi equal 23*10

variable  vxx equal sin($(v_theta/180*PI))*cos($(v_phi/180*PI))
variable  vxx equal sin(0)*cos($(v_phi/180*PI))
variable  vxx equal sin(0)*cos(4.0142572795869577718)
variable  vzz equal sin($(v_theta/180*PI))*sin($(v_phi/180*PI))
variable  vzz equal sin(0)*sin($(v_phi/180*PI))
variable  vzz equal sin(0)*sin(4.0142572795869577718)
variable  vyy equal cos($(v_theta/180*PI))
variable  vyy equal cos(0)
#variable  vxx equal sin($(v_theta/180*PI))*cos($(v_phi/180*PI))
#variable  vyy equal sin($(v_theta/180*PI))*sin($(v_phi/180*PI))
#variable  vzz equal cos($(v_theta/180*PI))
variable  xx equal v_dist*v_vxx
variable  yy equal v_dist*v_vyy
variable  zz equal v_dist*v_vzz

set atom 1 x ${xx} y ${yy} z ${zz}
set atom 1 x -0 y ${yy} z ${zz}
set atom 1 x -0 y 3.8 z ${zz}
set atom 1 x -0 y 3.8 z -0
  1 settings made for x
  1 settings made for y
  1 settings made for z
fix      1 anion move linear ${vxx} ${vyy} ${vzz}
fix      1 anion move linear -0 ${vyy} ${vzz}
fix      1 anion move linear -0 1 ${vzz}
fix      1 anion move linear -0 1 -0
run             150
MSM initialization ...
WARNING: Adjusting Coulombic cutoff for MSM, new cutoff = 144.125 (../msm.cpp:1054)
  using 12-bit tables for long-range coulomb (../kspace.cpp:321)
WARNING: For better accuracy use 'pair_modify table 0' (../kspace.cpp:342)
  3d grid size/proc = 1331
  estimated absolute RMS force accuracy = 1.43996e-05
  estimated relative force accuracy = 1e-06
  grid = 2 2 2
  order = 10
Per MPI rank memory allocation (min/avg/max) = 6.787 | 6.787 | 6.787 Mbytes
Step Temp PotEng KinEng E_bond Press Density 
    3450    38.754379    54.421447   0.01502819  0.014032127    715.95163 0.0013005393 
    3500    38.754379  -0.51029366   0.01502819  0.014032127    10.110726 0.0013005393 
    3600    38.754379  -0.19997815   0.01502819  0.014032127    10.435842 0.0013005393 
Loop time of 1.01198 on 1 procs for 150 steps with 4 atoms

Performance: 2561.313 ns/day, 0.009 hours/ns, 148.224 timesteps/s
100.0% CPU use with 1 MPI tasks x no OpenMP threads

MPI task timing breakdown:
Section |  min time  |  avg time  |  max time  |%varavg| %total
---------------------------------------------------------------
Pair    | 0.00025654 | 0.00025654 | 0.00025654 |   0.0 |  0.03
Bond    | 9.1076e-05 | 9.1076e-05 | 9.1076e-05 |   0.0 |  0.01
Kspace  | 1.0093     | 1.0093     | 1.0093     |   0.0 | 99.73
Neigh   | 4.7684e-05 | 4.7684e-05 | 4.7684e-05 |   0.0 |  0.00
Comm    | 3.171e-05  | 3.171e-05  | 3.171e-05  |   0.0 |  0.00
Output  | 2.5988e-05 | 2.5988e-05 | 2.5988e-05 |   0.0 |  0.00
Modify  | 0.0021622  | 0.0021622  | 0.0021622  |   0.0 |  0.21
Other   |            | 0.0001025  |            |       |  0.01

Nlocal:    4 ave 4 max 4 min
Histogram: 1 0 0 0 0 0 0 0 0 0
Nghost:    0 ave 0 max 0 min
[...]
#variable  vyy equal sin($(v_theta/180*PI))*sin($(v_phi/180*PI))
#variable  vzz equal cos($(v_theta/180*PI))
variable  xx equal v_dist*v_vxx
variable  yy equal v_dist*v_vyy
variable  zz equal v_dist*v_vzz

set atom 1 x ${xx} y ${yy} z ${zz}
set atom 1 x 2.99131359718996e-16 y ${yy} z ${zz}
set atom 1 x 2.99131359718996e-16 y -3.8 z ${zz}
set atom 1 x 2.99131359718996e-16 y -3.8 z -3.56490872602704e-16
  1 settings made for x
  1 settings made for y
  1 settings made for z
fix      1 anion move linear ${vxx} ${vyy} ${vzz}
fix      1 anion move linear 7.87187788734199e-17 ${vyy} ${vzz}
fix      1 anion move linear 7.87187788734199e-17 -1 ${vzz}
fix      1 anion move linear 7.87187788734199e-17 -1 -9.38133875270273e-17
run             150
MSM initialization ...
WARNING: Adjusting Coulombic cutoff for MSM, new cutoff = 144.125 (../msm.cpp:1054)
  using 12-bit tables for long-range coulomb (../kspace.cpp:321)
WARNING: For better accuracy use 'pair_modify table 0' (../kspace.cpp:342)
  3d grid size/proc = 1331
  estimated absolute RMS force accuracy = 1.43996e-05
  estimated relative force accuracy = 1e-06
  grid = 2 2 2
  order = 10
Per MPI rank memory allocation (min/avg/max) = 6.787 | 6.787 | 6.787 Mbytes
Step Temp PotEng KinEng E_bond Press Density 
  104550    38.754379    32.111554   0.01502819  0.014032127    434.22079 0.0013005393 
  104600    38.754379  -0.49420331   0.01502819  0.014032127    10.127628 0.0013005393 
  104700    38.754379  -0.19715282   0.01502819  0.014032127    10.438789 0.0013005393 
Loop time of 1.01705 on 1 procs for 150 steps with 4 atoms

Performance: 2548.550 ns/day, 0.009 hours/ns, 147.486 timesteps/s
100.0% CPU use with 1 MPI tasks x no OpenMP threads

MPI task timing breakdown:
Section |  min time  |  avg time  |  max time  |%varavg| %total
---------------------------------------------------------------
Pair    | 0.00029087 | 0.00029087 | 0.00029087 |   0.0 |  0.03
Bond    | 6.3896e-05 | 6.3896e-05 | 6.3896e-05 |   0.0 |  0.01
Kspace  | 1.0142     | 1.0142     | 1.0142     |   0.0 | 99.72
Neigh   | 4.1723e-05 | 4.1723e-05 | 4.1723e-05 |   0.0 |  0.00
Comm    | 3.9101e-05 | 3.9101e-05 | 3.9101e-05 |   0.0 |  0.00
Output  | 2.8133e-05 | 2.8133e-05 | 2.8133e-05 |   0.0 |  0.00
Modify  | 0.002286   | 0.002286   | 0.002286   |   0.0 |  0.22
Other   |            | 8.178e-05  |            |       |  0.01

Nlocal:    4 ave 4 max 4 min
Histogram: 1 0 0 0 0 0 0 0 0 0
Nghost:    0 ave 0 max 0 min
Histogram: 1 0 0 0 0 0 0 0 0 0
Neighs:    6 ave 6 max 6 min
Histogram: 1 0 0 0 0 0 0 0 0 0

Total # of neighbors = 6
Ave neighs/atom = 1.5
Ave special neighs/atom = 1.5
Neighbor list builds = 25
Dangerous builds = 0
#minimize 1.e-4 1.0e-6 100 1000
#run             1

next k
jump in.CG.IL phi_loop
variable k loop 0 36
#variable k loop 0 0
variable phi equal $k*10
variable phi equal 32*10

variable  vxx equal sin($(v_theta/180*PI))*cos($(v_phi/180*PI))
variable  vxx equal sin(3.141592653589793116)*cos($(v_phi/180*PI))
variable  vxx equal sin(3.141592653589793116)*cos(5.5850536063818543298)
variable  vzz equal sin($(v_theta/180*PI))*sin($(v_phi/180*PI))
variable  vzz equal sin(3.141592653589793116)*sin($(v_phi/180*PI))
variable  vzz equal sin(3.141592653589793116)*sin(5.5850536063818543298)
variable  vyy equal cos($(v_theta/180*PI))
variable  vyy equal cos(3.141592653589793116)
#variable  vxx equal sin($(v_theta/180*PI))*cos($(v_phi/180*PI))
#variable  vyy equal sin($(v_theta/180*PI))*sin($(v_phi/180*PI))
#variable  vzz equal cos($(v_theta/180*PI))
variable  xx equal v_dist*v_vxx
variable  yy equal v_dist*v_vyy
variable  zz equal v_dist*v_vzz

set atom 1 x ${xx} y ${yy} z ${zz}
set atom 1 x 3.56490872602704e-16 y ${yy} z ${zz}
set atom 1 x 3.56490872602704e-16 y -3.8 z ${zz}
set atom 1 x 3.56490872602704e-16 y -3.8 z -2.99131359718996e-16
  1 settings made for x
  1 settings made for y
  1 settings made for z
fix      1 anion move linear ${vxx} ${vyy} ${vzz}
fix      1 anion move linear 9.38133875270273e-17 ${vyy} ${vzz}
fix      1 anion move linear 9.38133875270273e-17 -1 ${vzz}
fix      1 anion move linear 9.38133875270273e-17 -1 -7.87187788734199e-17
run             150
MSM initialization ...
WARNING: Adjusting Coulombic cutoff for MSM, new cutoff = 144.125 (../msm.cpp:1054)
  using 12-bit tables for long-range coulomb (../kspace.cpp:321)
WARNING: For better accuracy use 'pair_modify table 0' (../kspace.cpp:342)
  3d grid size/proc = 1331
  estimated absolute RMS force accuracy = 1.43996e-05
  estimated relative force accuracy = 1e-06
  grid = 2 2 2
  order = 10
Per MPI rank memory allocation (min/avg/max) = 6.787 | 6.787 | 6.787 Mbytes
Step Temp PotEng KinEng E_bond Press Density 
  104700    38.754379    32.111554   0.01502819  0.014032127    434.22079 0.0013005393 
  104800    38.754379  -0.28451923   0.01502819  0.014032127    10.347659 0.0013005393 
  104850    38.754379  -0.19715282   0.01502819  0.014032127    10.438789 0.0013005393 
Loop time of 1.0182 on 1 procs for 150 steps with 4 atoms

Performance: 2545.664 ns/day, 0.009 hours/ns, 147.318 timesteps/s
100.0% CPU use with 1 MPI tasks x no OpenMP threads

MPI task timing breakdown:
Section |  min time  |  avg time  |  max time  |%varavg| %total
---------------------------------------------------------------
Pair    | 0.00025368 | 0.00025368 | 0.00025368 |   0.0 |  0.02
Bond    | 6.628e-05  | 6.628e-05  | 6.628e-05  |   0.0 |  0.01
Kspace  | 1.0154     | 1.0154     | 1.0154     |   0.0 | 99.72
Neigh   | 4.53e-05   | 4.53e-05   | 4.53e-05   |   0.0 |  0.00
Comm    | 3.2187e-05 | 3.2187e-05 | 3.2187e-05 |   0.0 |  0.00
Output  | 2.5988e-05 | 2.5988e-05 | 2.5988e-05 |   0.0 |  0.00
Modify  | 0.0022998  | 0.0022998  | 0.0022998  |   0.0 |  0.23
Other   |            | 7.796e-05  |            |       |  0.01

Nlocal:    4 ave 4 max 4 min
Histogram: 1 0 0 0 0 0 0 0 0 0
Nghost:    0 ave 0 max 0 min
Histogram: 1 0 0 0 0 0 0 0 0 0
Neighs:    6 ave 6 max 6 min
Histogram: 1 0 0 0 0 0 0 0 0 0

Total # of neighbors = 6
Ave neighs/atom = 1.5
Ave special neighs/atom = 1.5
Neighbor list builds = 25
Dangerous builds = 0
#minimize 1.e-4 1.0e-6 100 1000
#run             1

next k
jump in.CG.IL phi_loop
variable k loop 0 36
#variable k loop 0 0
variable phi equal $k*10
variable phi equal 33*10

variable  vxx equal sin($(v_theta/180*PI))*cos($(v_phi/180*PI))
variable  vxx equal sin(3.141592653589793116)*cos($(v_phi/180*PI))
variable  vxx equal sin(3.141592653589793116)*cos(5.7595865315812870833)
variable  vzz equal sin($(v_theta/180*PI))*sin($(v_phi/180*PI))
variable  vzz equal sin(3.141592653589793116)*sin($(v_phi/180*PI))
variable  vzz equal sin(3.141592653589793116)*sin(5.7595865315812870833)
variable  vyy equal cos($(v_theta/180*PI))
variable  vyy equal cos(3.141592653589793116)
#variable  vxx equal sin($(v_theta/180*PI))*cos($(v_phi/180*PI))
#variable  vyy equal sin($(v_theta/180*PI))*sin($(v_phi/180*PI))
#variable  vzz equal cos($(v_theta/180*PI))
variable  xx equal v_dist*v_vxx
variable  yy equal v_dist*v_vyy
variable  zz equal v_dist*v_vzz

set atom 1 x ${xx} y ${yy} z ${zz}
set atom 1 x 4.03018590715466e-16 y ${yy} z ${zz}
set atom 1 x 4.03018590715466e-16 y -3.8 z ${zz}
set atom 1 x 4.03018590715466e-16 y -3.8 z -2.32682891837997e-16
  1 settings made for x
  1 settings made for y
  1 settings made for z
fix      1 anion move linear ${vxx} ${vyy} ${vzz}
fix      1 anion move linear 1.06057523872491e-16 ${vyy} ${vzz}
fix      1 anion move linear 1.06057523872491e-16 -1 ${vzz}
fix      1 anion move linear 1.06057523872491e-16 -1 -6.12323399573677e-17
run             150
MSM initialization ...
WARNING: Adjusting Coulombic cutoff for MSM, new cutoff = 144.125 (../msm.cpp:1054)
  using 12-bit tables for long-range coulomb (../kspace.cpp:321)
WARNING: For better accuracy use 'pair_modify table 0' (../kspace.cpp:342)
  3d grid size/proc = 1331
  estimated absolute RMS force accuracy = 1.43996e-05
  estimated relative force accuracy = 1e-06
  grid = 2 2 2
  order = 10
Per MPI rank memory allocation (min/avg/max) = 6.787 | 6.787 | 6.787 Mbytes
Step Temp PotEng KinEng E_bond Press Density 
  104850    38.754379    32.111554   0.01502819  0.014032127    434.22079 0.0013005393 
  104900    38.754379  -0.49420331   0.01502819  0.014032127    10.127628 0.0013005393 
  105000    38.754379  -0.19715282   0.01502819  0.014032127    10.438789 0.0013005393 
Loop time of 1.0175 on 1 procs for 150 steps with 4 atoms

Performance: 2547.413 ns/day, 0.009 hours/ns, 147.420 timesteps/s
100.0% CPU use with 1 MPI tasks x no OpenMP threads

MPI task timing breakdown:
Section |  min time  |  avg time  |  max time  |%varavg| %total
---------------------------------------------------------------
Pair    | 0.00027633 | 0.00027633 | 0.00027633 |   0.0 |  0.03
Bond    | 6.4373e-05 | 6.4373e-05 | 6.4373e-05 |   0.0 |  0.01
Kspace  | 1.0147     | 1.0147     | 1.0147     |   0.0 | 99.73
Neigh   | 3.8385e-05 | 3.8385e-05 | 3.8385e-05 |   0.0 |  0.00
Comm    | 3.624e-05  | 3.624e-05  | 3.624e-05  |   0.0 |  0.00
Output  | 2.8849e-05 | 2.8849e-05 | 2.8849e-05 |   0.0 |  0.00
Modify  | 0.0022738  | 0.0022738  | 0.0022738  |   0.0 |  0.22
Other   |            | 6.723e-05  |            |       |  0.01

Nlocal:    4 ave 4 max 4 min
Histogram: 1 0 0 0 0 0 0 0 0 0
Nghost:    0 ave 0 max 0 min
Histogram: 1 0 0 0 0 0 0 0 0 0
Neighs:    6 ave 6 max 6 min
Histogram: 1 0 0 0 0 0 0 0 0 0

Total # of neighbors = 6
Ave neighs/atom = 1.5
Ave special neighs/atom = 1.5
Neighbor list builds = 25
Dangerous builds = 0
#minimize 1.e-4 1.0e-6 100 1000
#run             1

next k
jump in.CG.IL phi_loop
variable k loop 0 36
#variable k loop 0 0
variable phi equal $k*10
variable phi equal 34*10

variable  vxx equal sin($(v_theta/180*PI))*cos($(v_phi/180*PI))
variable  vxx equal sin(3.141592653589793116)*cos($(v_phi/180*PI))
variable  vxx equal sin(3.141592653589793116)*cos(5.9341194567807198368)
variable  vzz equal sin($(v_theta/180*PI))*sin($(v_phi/180*PI))
variable  vzz equal sin(3.141592653589793116)*sin($(v_phi/180*PI))
variable  vzz equal sin(3.141592653589793116)*sin(5.9341194567807198368)
variable  vyy equal cos($(v_theta/180*PI))
variable  vyy equal cos(3.141592653589793116)
#variable  vxx equal sin($(v_theta/180*PI))*cos($(v_phi/180*PI))
#variable  vyy equal sin($(v_theta/180*PI))*sin($(v_phi/180*PI))
#variable  vzz equal cos($(v_theta/180*PI))
variable  xx equal v_dist*v_vxx
variable  yy equal v_dist*v_vyy
variable  zz equal v_dist*v_vzz

set atom 1 x ${xx} y ${yy} z ${zz}
set atom 1 x 4.37300792886583e-16 y ${yy} z ${zz}
set atom 1 x 4.37300792886583e-16 y -3.8 z ${zz}
set atom 1 x 4.37300792886583e-16 y -3.8 z -1.59164472031726e-16
  1 settings made for x
  1 settings made for y
  1 settings made for z
fix      1 anion move linear ${vxx} ${vyy} ${vzz}
fix      1 anion move linear 1.15079156022785e-16 ${vyy} ${vzz}
fix      1 anion move linear 1.15079156022785e-16 -1 ${vzz}
fix      1 anion move linear 1.15079156022785e-16 -1 -4.188538737677e-17
run             150
MSM initialization ...
WARNING: Adjusting Coulombic cutoff for MSM, new cutoff = 144.125 (../msm.cpp:1054)
  using 12-bit tables for long-range coulomb (../kspace.cpp:321)
WARNING: For better accuracy use 'pair_modify table 0' (../kspace.cpp:342)
  3d grid size/proc = 1331
  estimated absolute RMS force accuracy = 1.43996e-05
  estimated relative force accuracy = 1e-06
  grid = 2 2 2
  order = 10
Per MPI rank memory allocation (min/avg/max) = 6.787 | 6.787 | 6.787 Mbytes
Step Temp PotEng KinEng E_bond Press Density 
  105000    38.754379    32.111554   0.01502819  0.014032127    434.22079 0.0013005393 
  105100    38.754379  -0.28451923   0.01502819  0.014032127    10.347659 0.0013005393 
  105150    38.754379  -0.19715282   0.01502819  0.014032127    10.438789 0.0013005393 
Loop time of 1.023 on 1 procs for 150 steps with 4 atoms

Performance: 2533.714 ns/day, 0.009 hours/ns, 146.627 timesteps/s
100.0% CPU use with 1 MPI tasks x no OpenMP threads

MPI task timing breakdown:
Section |  min time  |  avg time  |  max time  |%varavg| %total
---------------------------------------------------------------
Pair    | 0.00025845 | 0.00025845 | 0.00025845 |   0.0 |  0.03
Bond    | 7.2479e-05 | 7.2479e-05 | 7.2479e-05 |   0.0 |  0.01
Kspace  | 1.0202     | 1.0202     | 1.0202     |   0.0 | 99.73
Neigh   | 4.4823e-05 | 4.4823e-05 | 4.4823e-05 |   0.0 |  0.00
Comm    | 3.4571e-05 | 3.4571e-05 | 3.4571e-05 |   0.0 |  0.00
Output  | 2.9087e-05 | 2.9087e-05 | 2.9087e-05 |   0.0 |  0.00
Modify  | 0.0022616  | 0.0022616  | 0.0022616  |   0.0 |  0.22
Other   |            | 9.155e-05  |            |       |  0.01

Nlocal:    4 ave 4 max 4 min
Histogram: 1 0 0 0 0 0 0 0 0 0
Nghost:    0 ave 0 max 0 min
Histogram: 1 0 0 0 0 0 0 0 0 0
Neighs:    6 ave 6 max 6 min
Histogram: 1 0 0 0 0 0 0 0 0 0

Total # of neighbors = 6
Ave neighs/atom = 1.5
Ave special neighs/atom = 1.5
Neighbor list builds = 25
Dangerous builds = 0
#minimize 1.e-4 1.0e-6 100 1000
#run             1

next k
jump in.CG.IL phi_loop
variable k loop 0 36
#variable k loop 0 0
variable phi equal $k*10
variable phi equal 35*10

variable  vxx equal sin($(v_theta/180*PI))*cos($(v_phi/180*PI))
variable  vxx equal sin(3.141592653589793116)*cos($(v_phi/180*PI))
variable  vxx equal sin(3.141592653589793116)*cos(6.1086523819801534785)
variable  vzz equal sin($(v_theta/180*PI))*sin($(v_phi/180*PI))
variable  vzz equal sin(3.141592653589793116)*sin($(v_phi/180*PI))
variable  vzz equal sin(3.141592653589793116)*sin(6.1086523819801534785)
variable  vyy equal cos($(v_theta/180*PI))
variable  vyy equal cos(3.141592653589793116)
#variable  vxx equal sin($(v_theta/180*PI))*cos($(v_phi/180*PI))
#variable  vyy equal sin($(v_theta/180*PI))*sin($(v_phi/180*PI))
#variable  vzz equal cos($(v_theta/180*PI))
variable  xx equal v_dist*v_vxx
variable  yy equal v_dist*v_vyy
variable  zz equal v_dist*v_vzz

set atom 1 x ${xx} y ${yy} z ${zz}
set atom 1 x 4.58295831750722e-16 y ${yy} z ${zz}
set atom 1 x 4.58295831750722e-16 y -3.8 z ${zz}
set atom 1 x 4.58295831750722e-16 y -3.8 z -8.08099202838793e-17
  1 settings made for x
  1 settings made for y
  1 settings made for z
fix      1 anion move linear ${vxx} ${vyy} ${vzz}
fix      1 anion move linear 1.2060416625019e-16 ${vyy} ${vzz}
fix      1 anion move linear 1.2060416625019e-16 -1 ${vzz}
fix      1 anion move linear 1.2060416625019e-16 -1 -2.12657684957577e-17
run             150
MSM initialization ...
WARNING: Adjusting Coulombic cutoff for MSM, new cutoff = 144.125 (../msm.cpp:1054)
  using 12-bit tables for long-range coulomb (../kspace.cpp:321)
WARNING: For better accuracy use 'pair_modify table 0' (../kspace.cpp:342)
  3d grid size/proc = 1331
  estimated absolute RMS force accuracy = 1.43996e-05
  estimated relative force accuracy = 1e-06
  grid = 2 2 2
  order = 10
Per MPI rank memory allocation (min/avg/max) = 6.787 | 6.787 | 6.787 Mbytes
Step Temp PotEng KinEng E_bond Press Density 
  105150    38.754379    32.111554   0.01502819  0.014032127    434.22079 0.0013005393 
  105200    38.754379  -0.49420331   0.01502819  0.014032127    10.127628 0.0013005393 
  105300    38.754379  -0.19715282   0.01502819  0.014032127    10.438789 0.0013005393 
Loop time of 1.01625 on 1 procs for 150 steps with 4 atoms

Performance: 2550.553 ns/day, 0.009 hours/ns, 147.601 timesteps/s
100.0% CPU use with 1 MPI tasks x no OpenMP threads

MPI task timing breakdown:
Section |  min time  |  avg time  |  max time  |%varavg| %total
---------------------------------------------------------------
Pair    | 0.00027251 | 0.00027251 | 0.00027251 |   0.0 |  0.03
Bond    | 7.4625e-05 | 7.4625e-05 | 7.4625e-05 |   0.0 |  0.01
Kspace  | 1.0135     | 1.0135     | 1.0135     |   0.0 | 99.73
Neigh   | 4.5061e-05 | 4.5061e-05 | 4.5061e-05 |   0.0 |  0.00
Comm    | 2.7895e-05 | 2.7895e-05 | 2.7895e-05 |   0.0 |  0.00
Output  | 2.8849e-05 | 2.8849e-05 | 2.8849e-05 |   0.0 |  0.00
Modify  | 0.0022523  | 0.0022523  | 0.0022523  |   0.0 |  0.22
Other   |            | 6.843e-05  |            |       |  0.01

Nlocal:    4 ave 4 max 4 min
Histogram: 1 0 0 0 0 0 0 0 0 0
Nghost:    0 ave 0 max 0 min
Histogram: 1 0 0 0 0 0 0 0 0 0
Neighs:    6 ave 6 max 6 min
Histogram: 1 0 0 0 0 0 0 0 0 0

Total # of neighbors = 6
Ave neighs/atom = 1.5
Ave special neighs/atom = 1.5
Neighbor list builds = 25
Dangerous builds = 0
#minimize 1.e-4 1.0e-6 100 1000
#run             1

next k
jump in.CG.IL phi_loop
variable k loop 0 36
#variable k loop 0 0
variable phi equal $k*10
variable phi equal 36*10

variable  vxx equal sin($(v_theta/180*PI))*cos($(v_phi/180*PI))
variable  vxx equal sin(3.141592653589793116)*cos($(v_phi/180*PI))
variable  vxx equal sin(3.141592653589793116)*cos(6.283185307179586232)
variable  vzz equal sin($(v_theta/180*PI))*sin($(v_phi/180*PI))
variable  vzz equal sin(3.141592653589793116)*sin($(v_phi/180*PI))
variable  vzz equal sin(3.141592653589793116)*sin(6.283185307179586232)
variable  vyy equal cos($(v_theta/180*PI))
variable  vyy equal cos(3.141592653589793116)
#variable  vxx equal sin($(v_theta/180*PI))*cos($(v_phi/180*PI))
#variable  vyy equal sin($(v_theta/180*PI))*sin($(v_phi/180*PI))
#variable  vzz equal cos($(v_theta/180*PI))
variable  xx equal v_dist*v_vxx
variable  yy equal v_dist*v_vyy
variable  zz equal v_dist*v_vzz

set atom 1 x ${xx} y ${yy} z ${zz}
set atom 1 x 4.65365783675993e-16 y ${yy} z ${zz}
set atom 1 x 4.65365783675993e-16 y -3.8 z ${zz}
set atom 1 x 4.65365783675993e-16 y -3.8 z -1.13981743482301e-31
  1 settings made for x
  1 settings made for y
  1 settings made for z
fix      1 anion move linear ${vxx} ${vyy} ${vzz}
fix      1 anion move linear 1.22464679914735e-16 ${vyy} ${vzz}
fix      1 anion move linear 1.22464679914735e-16 -1 ${vzz}
fix      1 anion move linear 1.22464679914735e-16 -1 -2.99951956532372e-32
run             150
MSM initialization ...
WARNING: Adjusting Coulombic cutoff for MSM, new cutoff = 144.125 (../msm.cpp:1054)
  using 12-bit tables for long-range coulomb (../kspace.cpp:321)
WARNING: For better accuracy use 'pair_modify table 0' (../kspace.cpp:342)
  3d grid size/proc = 1331
  estimated absolute RMS force accuracy = 1.43996e-05
  estimated relative force accuracy = 1e-06
  grid = 2 2 2
  order = 10
Per MPI rank memory allocation (min/avg/max) = 6.787 | 6.787 | 6.787 Mbytes
Step Temp PotEng KinEng E_bond Press Density 
  105300    38.754379    32.111554   0.01502819  0.014032127    434.22079 0.0013005393 
  105400    38.754379  -0.28451923   0.01502819  0.014032127    10.347659 0.0013005393 
  105450    38.754379  -0.19715282   0.01502819  0.014032127    10.438789 0.0013005393 
Loop time of 1.01563 on 1 procs for 150 steps with 4 atoms

Performance: 2552.099 ns/day, 0.009 hours/ns, 147.691 timesteps/s
100.0% CPU use with 1 MPI tasks x no OpenMP threads

MPI task timing breakdown:
Section |  min time  |  avg time  |  max time  |%varavg| %total
---------------------------------------------------------------
Pair    | 0.00027275 | 0.00027275 | 0.00027275 |   0.0 |  0.03
Bond    | 7.7009e-05 | 7.7009e-05 | 7.7009e-05 |   0.0 |  0.01
Kspace  | 1.0128     | 1.0128     | 1.0128     |   0.0 | 99.72
Neigh   | 4.3631e-05 | 4.3631e-05 | 4.3631e-05 |   0.0 |  0.00
Comm    | 2.9564e-05 | 2.9564e-05 | 2.9564e-05 |   0.0 |  0.00
Output  | 2.718e-05  | 2.718e-05  | 2.718e-05  |   0.0 |  0.00
Modify  | 0.0022466  | 0.0022466  | 0.0022466  |   0.0 |  0.22
Other   |            | 0.0001171  |            |       |  0.01

Nlocal:    4 ave 4 max 4 min
Histogram: 1 0 0 0 0 0 0 0 0 0
Nghost:    0 ave 0 max 0 min
Histogram: 1 0 0 0 0 0 0 0 0 0
Neighs:    6 ave 6 max 6 min
Histogram: 1 0 0 0 0 0 0 0 0 0

Total # of neighbors = 6
Ave neighs/atom = 1.5
Ave special neighs/atom = 1.5
Neighbor list builds = 25
Dangerous builds = 0
#minimize 1.e-4 1.0e-6 100 1000
#run             1

next k
jump in.CG.IL phi_loop
next j
jump in.CG.IL theta_loop

##################################

#write_data solid4.data pair ij

Total wall time: 0:12:05
