ITEM: TIMESTEP
0
ITEM: NUMBER OF ATOMS
80
ITEM: BOX BOUNDS pp pp pp
-4.0000000000000000e+01 4.0000000000000000e+01
-4.0000000000000000e+01 4.0000000000000000e+01
-4.0000000000000000e+01 4.0000000000000000e+01
ITEM: ATOMS id mass type x y z 
78 67 2 -39.7606 -32.9289 -38.5958 
79 15 3 -38.5677 -30.9368 -39.9535 
80 29 4 39.2864 -33.8146 -35.8472 
60 67 2 18.0709 -15.2414 -33.552 
61 15 3 18.8192 -17.5833 -32.461 
62 29 4 15.7137 -13.6906 -34.6859 
30 67 2 27.8684 -15.3072 -37.487 
31 15 3 27.0469 -13.204 -38.9485 
32 29 4 30.2465 -16.5196 -36.0303 
15 86.8 1 -10.805 -0.25449 -37.2088 
40 15 3 -28.8016 18.875 -38.7411 
39 67 2 -31.0293 20.1598 -39.5295 
36 67 2 -28.4115 27.7147 -35.2537 
37 15 3 -27.6224 25.1594 -34.9669 
38 29 4 -28.6973 29.9993 -37.2402 
17 86.8 1 -5.49156 23.3027 -31.7598 
58 15 3 1.8091 22.1818 -39.0194 
4 86.8 1 -0.921555 31.4227 -38.5649 
9 86.8 1 29.0907 -33.235 -21.3637 
20 86.8 1 28.7539 -12.8915 -27.5041 
33 67 2 9.09742 -33.817 -10.2096 
35 29 4 6.61679 -34.2993 -11.9011 
6 86.8 1 23.8607 -12.786 -14.7544 
50 29 4 -4.69551 -0.787675 -18.2909 
48 67 2 -5.37584 1.57929 -16.5072 
49 15 3 -4.33667 3.64642 -15.1353 
3 86.8 1 -36.8171 14.2976 -19.4253 
34 15 3 11.5826 -34.6999 -9.68115 
24 67 2 2.73372 -12.2714 -3.20626 
25 15 3 5.07382 -12.3746 -4.5284 
26 29 4 0.486709 -13.9528 -2.03528 
71 29 4 1.81825 -11.2423 -4.2634 
51 67 2 16.1497 -11.0825 -4.00909 
52 15 3 18.8343 -11.2316 -3.93576 
53 29 4 13.5794 -12.6292 -3.51032 
70 15 3 -1.37928 -7.40213 -6.44892 
69 67 2 0.730328 -9.01645 -6.02669 
18 86.8 1 -27.1548 9.41929 -9.98672 
7 86.8 1 22.1578 5.48786 -5.50354 
2 86.8 1 7.29414 32.6479 -7.57523 
14 86.8 1 4.3055 -37.4315 9.39068 
1 86.8 1 -39.161 -19.1491 0.890539 
10 86.8 1 -19.8872 -4.86895 7.63172 
16 86.8 1 -8.07335 -8.75822 0.604183 
54 67 2 -16.0867 -30.8016 16.399 
56 29 4 -16.4474 -33.6371 17.4368 
55 15 3 -14.4377 -28.6766 16.3867 
66 67 2 -4.41535 -25.7301 10.722 
67 15 3 -6.19312 -23.7315 10.4389 
68 29 4 -1.77661 -26.5191 12.0111 
5 86.8 1 -0.514897 -13.8698 11.0873 
11 86.8 1 26.393 -12.3701 14.9609 
72 67 2 -17.765 7.00213 12.3528 
73 15 3 -15.2213 7.6051 11.7198 
74 29 4 -19.5763 4.84404 13.4971 
46 15 3 -20.9616 11.0674 10.8534 
45 67 2 -19.2047 11.3133 12.8751 
47 29 4 -17.1077 13.1354 14.112 
8 86.8 1 -17.9652 -21.7039 22.7922 
42 67 2 -1.18749 -27.4951 29.6473 
43 15 3 -3.64463 -27.1462 28.6103 
12 86.8 1 8.19587 -12.022 26.709 
22 15 3 -37.703 -3.17059 29.031 
63 67 2 10.5597 9.819 24.814 
65 29 4 10.8643 6.9113 23.9775 
64 15 3 11.8496 11.9336 25.8624 
19 86.8 1 -6.79422 -30.4281 34.6635 
44 29 4 0.514636 -29.3041 31.4017 
21 67 2 -38.1057 -3.11269 31.6898 
23 29 4 -39.7866 -4.24956 33.9546 
75 67 2 -1.49194 -2.96999 30.3131 
76 15 3 -3.43845 -1.12111 30.1472 
77 29 4 -0.739257 -5.65651 31.5228 
13 86.8 1 18.8545 7.20409 39.2077 
41 29 4 -33.8408 19.7765 39.377 
57 67 2 2.68142 23.1159 38.6138 
59 29 4 4.49549 22.5237 36.2462 
27 67 2 -14.0457 34.5657 35.9556 
28 15 3 -14.3124 35.0711 33.3272 
29 29 4 -14.9319 35.4259 38.7344 
ITEM: TIMESTEP
4
ITEM: NUMBER OF ATOMS
80
ITEM: BOX BOUNDS pp pp pp
-4.0000000000000000e+01 4.0000000000000000e+01
-4.0000000000000000e+01 4.0000000000000000e+01
-4.0000000000000000e+01 4.0000000000000000e+01
ITEM: ATOMS id mass type x y z 
78 67 2 -39.7597 -32.9278 -38.5984 
79 15 3 -38.5668 -30.9355 -39.9554 
80 29 4 39.2843 -33.8169 -35.8424 
60 67 2 18.0732 -15.243 -33.5506 
61 15 3 18.8208 -17.585 -32.4597 
62 29 4 15.7099 -13.687 -34.6881 
30 67 2 27.8663 -15.3057 -37.4882 
31 15 3 27.0454 -13.2024 -38.9498 
32 29 4 30.2505 -16.5224 -36.027 
15 86.8 1 -10.8049 -0.254445 -37.2091 
40 15 3 -28.7993 18.8743 -38.7402 
39 67 2 -31.0266 20.1596 -39.5284 
36 67 2 -28.4111 27.7125 -35.2515 
37 15 3 -27.6218 25.1574 -34.9653 
38 29 4 -28.6981 30.0041 -37.2431 
17 86.8 1 -5.49174 23.3023 -31.7602 
58 15 3 1.80758 22.1821 -39.0169 
4 86.8 1 -0.92146 31.4224 -38.5658 
9 86.8 1 29.0907 -33.2351 -21.3641 
20 86.8 1 28.7536 -12.8919 -27.5058 
33 67 2 9.10006 -33.8169 -10.2079 
35 29 4 6.61192 -34.2997 -11.9038 
6 86.8 1 23.8599 -12.7861 -14.754 
50 29 4 -4.69517 -0.792116 -18.2943 
48 67 2 -5.37643 1.58185 -16.5054 
49 15 3 -4.33668 3.64863 -15.1339 
3 86.8 1 -36.8172 14.298 -19.4259 
34 15 3 11.585 -34.7002 -9.68001 
24 67 2 2.7346 -12.269 -3.20904 
25 15 3 5.07555 -12.3735 -4.52922 
26 29 4 0.481982 -13.9547 -2.03267 
71 29 4 1.82169 -11.2471 -4.25943 
51 67 2 16.1529 -11.081 -4.0096 
52 15 3 18.8372 -11.2308 -3.93611 
53 29 4 13.5747 -12.6313 -3.50962 
70 15 3 -1.38079 -7.40055 -6.4496 
69 67 2 0.728963 -9.01475 -6.02762 
18 86.8 1 -27.1543 9.41933 -9.98643 
7 86.8 1 22.1573 5.48773 -5.50339 
2 86.8 1 7.29406 32.6483 -7.57532 
14 86.8 1 4.30511 -37.4311 9.39085 
1 86.8 1 -39.1609 -19.1493 0.890648 
10 86.8 1 -19.8872 -4.86807 7.63231 
16 86.8 1 -8.072 -8.75834 0.603125 
54 67 2 -16.0863 -30.7985 16.3982 
56 29 4 -16.4488 -33.6422 17.4383 
55 15 3 -14.437 -28.674 16.3863 
66 67 2 -4.41782 -25.7289 10.7207 
67 15 3 -6.19507 -23.7301 10.4381 
68 29 4 -1.77169 -26.5212 12.0131 
5 86.8 1 -0.51482 -13.8703 11.0869 
11 86.8 1 26.3929 -12.3701 14.9612 
72 67 2 -17.7627 7.00302 12.3513 
73 15 3 -15.219 7.60558 11.7188 
74 29 4 -19.5802 4.83975 13.499 
46 15 3 -20.9638 11.0668 10.8516 
45 67 2 -19.2074 11.3124 12.8738 
47 29 4 -17.1038 13.1386 14.1147 
8 86.8 1 -17.965 -21.7046 22.792 
42 67 2 -1.18963 -27.4935 29.6459 
43 15 3 -3.64682 -27.1452 28.6093 
12 86.8 1 8.19556 -12.0217 26.7095 
22 15 3 -37.7019 -3.17006 29.0286 
63 67 2 10.5597 9.82188 24.8149 
65 29 4 10.8642 6.90589 23.9757 
64 15 3 11.8501 11.936 25.8634 
19 86.8 1 -6.79351 -30.4279 34.6625 
44 29 4 0.518192 -29.307 31.405 
21 67 2 -38.1042 -3.11169 31.6873 
23 29 4 -39.7893 -4.25119 33.9593 
75 67 2 -1.49285 -2.96744 30.312 
76 15 3 -3.43964 -1.11907 30.1466 
77 29 4 -0.737055 -5.66155 31.5247 
13 86.8 1 18.8543 7.20412 39.2074 
41 29 4 -33.8463 19.7764 39.375 
57 67 2 2.67953 23.1166 38.6166 
59 29 4 4.49845 22.5236 36.2418 
27 67 2 -14.0447 34.5651 35.9528 
28 15 3 -14.3118 35.0709 33.3247 
29 29 4 -14.9328 35.4269 38.74 
ITEM: TIMESTEP
0
ITEM: NUMBER OF ATOMS
80
ITEM: BOX BOUNDS pp pp pp
-4.0000000000000000e+01 4.0000000000000000e+01
-4.0000000000000000e+01 4.0000000000000000e+01
-4.0000000000000000e+01 4.0000000000000000e+01
ITEM: ATOMS id mass type x y z 
78 67 2 -39.7597 -32.9278 -38.5984 
79 15 3 -38.5668 -30.9355 -39.9554 
80 29 4 39.2843 -33.8169 -35.8424 
60 67 2 18.0732 -15.243 -33.5506 
61 15 3 18.8208 -17.585 -32.4597 
62 29 4 15.7099 -13.687 -34.6881 
30 67 2 27.8663 -15.3057 -37.4882 
31 15 3 27.0454 -13.2024 -38.9498 
32 29 4 30.2505 -16.5224 -36.027 
15 86.8 1 -10.8049 -0.254445 -37.2091 
40 15 3 -28.7993 18.8743 -38.7402 
39 67 2 -31.0266 20.1596 -39.5284 
36 67 2 -28.4111 27.7125 -35.2515 
37 15 3 -27.6218 25.1574 -34.9653 
17 86.8 1 -5.49174 23.3023 -31.7602 
58 15 3 1.80758 22.1821 -39.0169 
38 29 4 -28.6981 30.0041 -37.2431 
4 86.8 1 -0.92146 31.4224 -38.5658 
9 86.8 1 29.0907 -33.2351 -21.3641 
20 86.8 1 28.7536 -12.8919 -27.5058 
33 67 2 9.10006 -33.8169 -10.2079 
35 29 4 6.61192 -34.2997 -11.9038 
6 86.8 1 23.8599 -12.7861 -14.754 
50 29 4 -4.69517 -0.792116 -18.2943 
48 67 2 -5.37643 1.58185 -16.5054 
49 15 3 -4.33668 3.64863 -15.1339 
3 86.8 1 -36.8172 14.298 -19.4259 
34 15 3 11.585 -34.7002 -9.68001 
24 67 2 2.7346 -12.269 -3.20904 
25 15 3 5.07555 -12.3735 -4.52922 
26 29 4 0.481982 -13.9547 -2.03267 
71 29 4 1.82169 -11.2471 -4.25943 
51 67 2 16.1529 -11.081 -4.0096 
52 15 3 18.8372 -11.2308 -3.93611 
53 29 4 13.5747 -12.6313 -3.50962 
70 15 3 -1.38079 -7.40055 -6.4496 
69 67 2 0.728963 -9.01475 -6.02762 
18 86.8 1 -27.1543 9.41933 -9.98643 
7 86.8 1 22.1573 5.48773 -5.50339 
2 86.8 1 7.29406 32.6483 -7.57532 
14 86.8 1 4.30511 -37.4311 9.39085 
1 86.8 1 -39.1609 -19.1493 0.890648 
10 86.8 1 -19.8872 -4.86807 7.63231 
16 86.8 1 -8.072 -8.75834 0.603125 
54 67 2 -16.0863 -30.7985 16.3982 
56 29 4 -16.4488 -33.6422 17.4383 
55 15 3 -14.437 -28.674 16.3863 
66 67 2 -4.41782 -25.7289 10.7207 
67 15 3 -6.19507 -23.7301 10.4381 
68 29 4 -1.77169 -26.5212 12.0131 
5 86.8 1 -0.51482 -13.8703 11.0869 
11 86.8 1 26.3929 -12.3701 14.9612 
72 67 2 -17.7627 7.00302 12.3513 
73 15 3 -15.219 7.60558 11.7188 
74 29 4 -19.5802 4.83975 13.499 
46 15 3 -20.9638 11.0668 10.8516 
45 67 2 -19.2074 11.3124 12.8738 
47 29 4 -17.1038 13.1386 14.1147 
8 86.8 1 -17.965 -21.7046 22.792 
42 67 2 -1.18963 -27.4935 29.6459 
43 15 3 -3.64682 -27.1452 28.6093 
12 86.8 1 8.19556 -12.0217 26.7095 
22 15 3 -37.7019 -3.17006 29.0286 
63 67 2 10.5597 9.82188 24.8149 
65 29 4 10.8642 6.90589 23.9757 
64 15 3 11.8501 11.936 25.8634 
19 86.8 1 -6.79351 -30.4279 34.6625 
44 29 4 0.518192 -29.307 31.405 
21 67 2 -38.1042 -3.11169 31.6873 
23 29 4 -39.7893 -4.25119 33.9593 
75 67 2 -1.49285 -2.96744 30.312 
76 15 3 -3.43964 -1.11907 30.1466 
77 29 4 -0.737055 -5.66155 31.5247 
13 86.8 1 18.8543 7.20412 39.2074 
41 29 4 -33.8463 19.7764 39.375 
57 67 2 2.67953 23.1166 38.6166 
59 29 4 4.49845 22.5236 36.2418 
27 67 2 -14.0447 34.5651 35.9528 
28 15 3 -14.3118 35.0709 33.3247 
29 29 4 -14.9328 35.4269 38.74 
