ITEM: TIMESTEP
0
ITEM: NUMBER OF ATOMS
4
ITEM: BOX BOUNDS pp pp pp
-4.0000000000000000e+01 4.0000000000000000e+01
-4.0000000000000000e+01 4.0000000000000000e+01
-4.0000000000000000e+01 4.0000000000000000e+01
ITEM: ATOMS id type xs ys zs
2 2 0.511626 0.508414 0.500045
3 3 0.545236 0.50753 0.500137
4 4 0.480256 0.489067 0.509345
1 1 0.625 0.5 0.5
ITEM: TIMESTEP
100
ITEM: NUMBER OF ATOMS
4
ITEM: BOX BOUNDS pp pp pp
-3.6000000000000085e+01 3.6000000000000085e+01
-3.6000000000000085e+01 3.6000000000000085e+01
-3.6000000000000085e+01 3.6000000000000085e+01
ITEM: ATOMS id type xs ys zs
2 2 0.512581 0.508513 0.49999
3 3 0.544467 0.507548 0.500136
4 4 0.480069 0.48895 0.509401
1 1 0.625 0.5 0.5
ITEM: TIMESTEP
200
ITEM: NUMBER OF ATOMS
4
ITEM: BOX BOUNDS pp pp pp
-3.6000000000000085e+01 3.6000000000000085e+01
-3.6000000000000085e+01 3.6000000000000085e+01
-3.6000000000000085e+01 3.6000000000000085e+01
ITEM: ATOMS id type xs ys zs
2 2 0.51299 0.508865 0.499822
4 4 0.479023 0.488313 0.509708
3 3 0.54479 0.507296 0.50025
1 1 0.624999 0.5 0.5
ITEM: TIMESTEP
300
ITEM: NUMBER OF ATOMS
4
ITEM: BOX BOUNDS pp pp pp
-3.6000000000000085e+01 3.6000000000000085e+01
-3.6000000000000085e+01 3.6000000000000085e+01
-3.6000000000000085e+01 3.6000000000000085e+01
ITEM: ATOMS id type xs ys zs
2 2 0.513364 0.508934 0.499787
4 4 0.478816 0.488226 0.50975
3 3 0.543592 0.507172 0.50032
1 1 0.624998 0.5 0.5
ITEM: TIMESTEP
400
ITEM: NUMBER OF ATOMS
4
ITEM: BOX BOUNDS pp pp pp
-3.6000000000000085e+01 3.6000000000000085e+01
-3.6000000000000085e+01 3.6000000000000085e+01
-3.6000000000000085e+01 3.6000000000000085e+01
ITEM: ATOMS id type xs ys zs
2 2 0.51361 0.50853 0.499972
4 4 0.479492 0.488762 0.509494
3 3 0.541191 0.507847 0.500028
1 1 0.624995 0.5 0.5
ITEM: TIMESTEP
500
ITEM: NUMBER OF ATOMS
4
ITEM: BOX BOUNDS pp pp pp
-3.6000000000000085e+01 3.6000000000000085e+01
-3.6000000000000085e+01 3.6000000000000085e+01
-3.6000000000000085e+01 3.6000000000000085e+01
ITEM: ATOMS id type xs ys zs
2 2 0.514307 0.508999 0.499747
4 4 0.478549 0.487925 0.509893
3 3 0.540076 0.507487 0.500206
1 1 0.624991 0.500001 0.5
ITEM: TIMESTEP
600
ITEM: NUMBER OF ATOMS
4
ITEM: BOX BOUNDS pp pp pp
-3.6000000000000085e+01 3.6000000000000085e+01
-3.6000000000000085e+01 3.6000000000000085e+01
-3.6000000000000085e+01 3.6000000000000085e+01
ITEM: ATOMS id type xs ys zs
2 2 0.514775 0.509045 0.499721
4 4 0.478095 0.487777 0.509965
3 3 0.538983 0.507581 0.500172
1 1 0.624986 0.500001 0.5
ITEM: TIMESTEP
700
ITEM: NUMBER OF ATOMS
4
ITEM: BOX BOUNDS pp pp pp
-3.6000000000000085e+01 3.6000000000000085e+01
-3.6000000000000085e+01 3.6000000000000085e+01
-3.6000000000000085e+01 3.6000000000000085e+01
ITEM: ATOMS id type xs ys zs
2 2 0.514672 0.508628 0.499916
4 4 0.479009 0.488516 0.509613
3 3 0.537636 0.507911 0.500031
1 1 0.62498 0.500002 0.5
ITEM: TIMESTEP
800
ITEM: NUMBER OF ATOMS
4
ITEM: BOX BOUNDS pp pp pp
-3.6000000000000085e+01 3.6000000000000085e+01
-3.6000000000000085e+01 3.6000000000000085e+01
-3.6000000000000085e+01 3.6000000000000085e+01
ITEM: ATOMS id type xs ys zs
2 2 0.514782 0.508946 0.499767
4 4 0.478311 0.487952 0.509882
3 3 0.538591 0.507658 0.500139
1 1 0.624973 0.500002 0.5
ITEM: TIMESTEP
900
ITEM: NUMBER OF ATOMS
4
ITEM: BOX BOUNDS pp pp pp
-3.6000000000000085e+01 3.6000000000000085e+01
-3.6000000000000085e+01 3.6000000000000085e+01
-3.6000000000000085e+01 3.6000000000000085e+01
ITEM: ATOMS id type xs ys zs
2 2 0.514506 0.509084 0.499705
4 4 0.478261 0.487755 0.509974
3 3 0.539933 0.507448 0.500223
1 1 0.624965 0.500003 0.5
ITEM: TIMESTEP
1000
ITEM: NUMBER OF ATOMS
4
ITEM: BOX BOUNDS pp pp pp
-3.6000000000000085e+01 3.6000000000000085e+01
-3.6000000000000085e+01 3.6000000000000085e+01
-3.6000000000000085e+01 3.6000000000000085e+01
ITEM: ATOMS id type xs ys zs
2 2 0.513759 0.508579 0.499947
4 4 0.479476 0.488679 0.509533
3 3 0.540791 0.507784 0.500058
1 1 0.624955 0.500004 0.5
ITEM: TIMESTEP
1100
ITEM: NUMBER OF ATOMS
4
ITEM: BOX BOUNDS pp pp pp
-3.6000000000000085e+01 3.6000000000000085e+01
-3.6000000000000085e+01 3.6000000000000085e+01
-3.6000000000000085e+01 3.6000000000000085e+01
ITEM: ATOMS id type xs ys zs
2 2 0.51346 0.5088 0.499847
4 4 0.479004 0.488406 0.509664
3 3 0.543085 0.507367 0.500229
1 1 0.624945 0.500005 0.5
ITEM: TIMESTEP
1200
ITEM: NUMBER OF ATOMS
4
ITEM: BOX BOUNDS pp pp pp
-3.6000000000000085e+01 3.6000000000000085e+01
-3.6000000000000085e+01 3.6000000000000085e+01
-3.6000000000000085e+01 3.6000000000000085e+01
ITEM: ATOMS id type xs ys zs
2 2 0.51316 0.508973 0.499769
4 4 0.478854 0.488167 0.509777
3 3 0.54475 0.507091 0.50034
1 1 0.624933 0.500006 0.5
ITEM: TIMESTEP
1300
ITEM: NUMBER OF ATOMS
4
ITEM: BOX BOUNDS pp pp pp
-3.6000000000000085e+01 3.6000000000000085e+01
-3.6000000000000085e+01 3.6000000000000085e+01
-3.6000000000000085e+01 3.6000000000000085e+01
ITEM: ATOMS id type xs ys zs
2 2 0.512681 0.508506 0.499991
4 4 0.480008 0.488926 0.509413
3 3 0.544582 0.507591 0.500108
1 1 0.62492 0.500007 0.5
ITEM: TIMESTEP
1400
ITEM: NUMBER OF ATOMS
4
ITEM: BOX BOUNDS pp pp pp
-3.6000000000000085e+01 3.6000000000000085e+01
-3.6000000000000085e+01 3.6000000000000085e+01
-3.6000000000000085e+01 3.6000000000000085e+01
ITEM: ATOMS id type xs ys zs
2 2 0.51292 0.508768 0.499866
4 4 0.479418 0.48852 0.509607
3 3 0.544803 0.50726 0.500259
1 1 0.624906 0.500008 0.5
ITEM: TIMESTEP
1500
ITEM: NUMBER OF ATOMS
4
ITEM: BOX BOUNDS pp pp pp
-3.6000000000000085e+01 3.6000000000000085e+01
-3.6000000000000085e+01 3.6000000000000085e+01
-3.6000000000000085e+01 3.6000000000000085e+01
ITEM: ATOMS id type xs ys zs
2 2 0.513411 0.508968 0.499768
4 4 0.478693 0.488143 0.509789
3 3 0.544204 0.507141 0.500319
1 1 0.624891 0.500009 0.5
ITEM: TIMESTEP
1600
ITEM: NUMBER OF ATOMS
4
ITEM: BOX BOUNDS pp pp pp
-3.6000000000000085e+01 3.6000000000000085e+01
-3.6000000000000085e+01 3.6000000000000085e+01
-3.6000000000000085e+01 3.6000000000000085e+01
ITEM: ATOMS id type xs ys zs
2 2 0.513591 0.508575 0.499949
4 4 0.479576 0.48876 0.509494
3 3 0.541742 0.507606 0.500125
1 1 0.624875 0.50001 0.5
ITEM: TIMESTEP
1700
ITEM: NUMBER OF ATOMS
4
ITEM: BOX BOUNDS pp pp pp
-3.6000000000000085e+01 3.6000000000000085e+01
-3.6000000000000085e+01 3.6000000000000085e+01
-3.6000000000000085e+01 3.6000000000000085e+01
ITEM: ATOMS id type xs ys zs
2 2 0.514247 0.508817 0.49983
4 4 0.478872 0.488211 0.509756
3 3 0.540399 0.507649 0.500117
1 1 0.624858 0.500012 0.5
ITEM: TIMESTEP
1800
ITEM: NUMBER OF ATOMS
4
ITEM: BOX BOUNDS pp pp pp
-3.6000000000000085e+01 3.6000000000000085e+01
-3.6000000000000085e+01 3.6000000000000085e+01
-3.6000000000000085e+01 3.6000000000000085e+01
ITEM: ATOMS id type xs ys zs
2 2 0.514835 0.509141 0.499673
4 4 0.478135 0.487663 0.510018
3 3 0.539426 0.507329 0.500273
1 1 0.62484 0.500013 0.5
ITEM: TIMESTEP
1900
ITEM: NUMBER OF ATOMS
4
ITEM: BOX BOUNDS pp pp pp
-3.6000000000000085e+01 3.6000000000000085e+01
-3.6000000000000085e+01 3.6000000000000085e+01
-3.6000000000000085e+01 3.6000000000000085e+01
ITEM: ATOMS id type xs ys zs
2 2 0.514833 0.508622 0.499914
4 4 0.478929 0.488488 0.509627
3 3 0.537948 0.507922 0.500011
1 1 0.62482 0.500015 0.5
ITEM: TIMESTEP
2000
ITEM: NUMBER OF ATOMS
4
ITEM: BOX BOUNDS pp pp pp
-3.6000000000000085e+01 3.6000000000000085e+01
-3.6000000000000085e+01 3.6000000000000085e+01
-3.6000000000000085e+01 3.6000000000000085e+01
ITEM: ATOMS id type xs ys zs
2 2 0.51488 0.508836 0.499814
4 4 0.478697 0.488176 0.509774
3 3 0.538316 0.507608 0.500152
1 1 0.6248 0.500016 0.5
ITEM: TIMESTEP
2100
ITEM: NUMBER OF ATOMS
4
ITEM: BOX BOUNDS pp pp pp
-3.6000000000000085e+01 3.6000000000000085e+01
-3.6000000000000085e+01 3.6000000000000085e+01
-3.6000000000000085e+01 3.6000000000000085e+01
ITEM: ATOMS id type xs ys zs
2 2 0.514805 0.5091 0.499692
4 4 0.478133 0.48769 0.510006
3 3 0.539885 0.507428 0.500218
1 1 0.624778 0.500018 0.5
ITEM: TIMESTEP
2200
ITEM: NUMBER OF ATOMS
4
ITEM: BOX BOUNDS pp pp pp
-3.6000000000000085e+01 3.6000000000000085e+01
-3.6000000000000085e+01 3.6000000000000085e+01
-3.6000000000000085e+01 3.6000000000000085e+01
ITEM: ATOMS id type xs ys zs
2 2 0.514067 0.508653 0.499906
4 4 0.47943 0.488565 0.509586
3 3 0.540615 0.507602 0.500128
1 1 0.624755 0.50002 0.5
ITEM: TIMESTEP
2300
ITEM: NUMBER OF ATOMS
4
ITEM: BOX BOUNDS pp pp pp
-3.6000000000000085e+01 3.6000000000000085e+01
-3.6000000000000085e+01 3.6000000000000085e+01
-3.6000000000000085e+01 3.6000000000000085e+01
ITEM: ATOMS id type xs ys zs
2 2 0.513675 0.508658 0.499907
4 4 0.479321 0.488609 0.509566
3 3 0.542655 0.507481 0.500162
1 1 0.624731 0.500022 0.5
ITEM: TIMESTEP
2400
ITEM: NUMBER OF ATOMS
4
ITEM: BOX BOUNDS pp pp pp
-3.6000000000000085e+01 3.6000000000000085e+01
-3.6000000000000085e+01 3.6000000000000085e+01
-3.6000000000000085e+01 3.6000000000000085e+01
ITEM: ATOMS id type xs ys zs
2 2 0.513451 0.509004 0.499749
4 4 0.478834 0.488139 0.50979
3 3 0.544737 0.506915 0.500401
1 1 0.624706 0.500024 0.5
ITEM: TIMESTEP
2500
ITEM: NUMBER OF ATOMS
4
ITEM: BOX BOUNDS pp pp pp
-3.6000000000000085e+01 3.6000000000000085e+01
-3.6000000000000085e+01 3.6000000000000085e+01
-3.6000000000000085e+01 3.6000000000000085e+01
ITEM: ATOMS id type xs ys zs
2 2 0.512944 0.508551 0.499964
4 4 0.479954 0.488852 0.509447
3 3 0.544831 0.507438 0.500155
1 1 0.62468 0.500026 0.5
ITEM: TIMESTEP
2600
ITEM: NUMBER OF ATOMS
4
ITEM: BOX BOUNDS pp pp pp
-3.6000000000000085e+01 3.6000000000000085e+01
-3.6000000000000085e+01 3.6000000000000085e+01
-3.6000000000000085e+01 3.6000000000000085e+01
ITEM: ATOMS id type xs ys zs
2 2 0.513002 0.50863 0.499926
4 4 0.479859 0.48876 0.509491
3 3 0.544917 0.507269 0.500231
1 1 0.624653 0.500029 0.5
ITEM: TIMESTEP
2700
ITEM: NUMBER OF ATOMS
4
ITEM: BOX BOUNDS pp pp pp
-3.6000000000000085e+01 3.6000000000000085e+01
-3.6000000000000085e+01 3.6000000000000085e+01
-3.6000000000000085e+01 3.6000000000000085e+01
ITEM: ATOMS id type xs ys zs
2 2 0.513549 0.508972 0.499761
4 4 0.478815 0.488165 0.509778
3 3 0.544786 0.506963 0.500371
1 1 0.624624 0.500031 0.5
ITEM: TIMESTEP
2800
ITEM: NUMBER OF ATOMS
4
ITEM: BOX BOUNDS pp pp pp
-3.6000000000000085e+01 3.6000000000000085e+01
-3.6000000000000085e+01 3.6000000000000085e+01
-3.6000000000000085e+01 3.6000000000000085e+01
ITEM: ATOMS id type xs ys zs
2 2 0.51375 0.508609 0.499927
4 4 0.479583 0.488721 0.509512
3 3 0.542538 0.50741 0.500184
1 1 0.624595 0.500033 0.5
ITEM: TIMESTEP
2900
ITEM: NUMBER OF ATOMS
4
ITEM: BOX BOUNDS pp pp pp
-3.6000000000000085e+01 3.6000000000000085e+01
-3.6000000000000085e+01 3.6000000000000085e+01
-3.6000000000000085e+01 3.6000000000000085e+01
ITEM: ATOMS id type xs ys zs
2 2 0.514286 0.508668 0.499894
4 4 0.479363 0.488511 0.509612
3 3 0.540817 0.507563 0.500129
1 1 0.624564 0.500036 0.5
ITEM: TIMESTEP
3000
ITEM: NUMBER OF ATOMS
4
ITEM: BOX BOUNDS pp pp pp
-3.6000000000000085e+01 3.6000000000000085e+01
-3.6000000000000085e+01 3.6000000000000085e+01
-3.6000000000000085e+01 3.6000000000000085e+01
ITEM: ATOMS id type xs ys zs
2 2 0.515014 0.509106 0.499682
4 4 0.478271 0.487711 0.509994
3 3 0.540015 0.507252 0.500279
1 1 0.624532 0.500039 0.5
ITEM: TIMESTEP
3100
ITEM: NUMBER OF ATOMS
4
ITEM: BOX BOUNDS pp pp pp
-3.6000000000000085e+01 3.6000000000000085e+01
-3.6000000000000085e+01 3.6000000000000085e+01
-3.6000000000000085e+01 3.6000000000000085e+01
ITEM: ATOMS id type xs ys zs
2 2 0.515097 0.508707 0.499866
4 4 0.478972 0.488381 0.509676
3 3 0.538431 0.507624 0.500121
1 1 0.624499 0.500041 0.5
ITEM: TIMESTEP
3200
ITEM: NUMBER OF ATOMS
4
ITEM: BOX BOUNDS pp pp pp
-3.6000000000000085e+01 3.6000000000000085e+01
-3.6000000000000085e+01 3.6000000000000085e+01
-3.6000000000000085e+01 3.6000000000000085e+01
ITEM: ATOMS id type xs ys zs
2 2 0.515133 0.508648 0.499893
4 4 0.479045 0.488464 0.509637
3 3 0.538313 0.507703 0.500083
1 1 0.624465 0.500044 0.5
ITEM: TIMESTEP
3300
ITEM: NUMBER OF ATOMS
4
ITEM: BOX BOUNDS pp pp pp
-3.6000000000000085e+01 3.6000000000000085e+01
-3.6000000000000085e+01 3.6000000000000085e+01
-3.6000000000000085e+01 3.6000000000000085e+01
ITEM: ATOMS id type xs ys zs
2 2 0.515159 0.509108 0.499678
4 4 0.47832 0.487716 0.509992
3 3 0.539834 0.507189 0.500303
1 1 0.62443 0.500047 0.5
ITEM: TIMESTEP
3400
ITEM: NUMBER OF ATOMS
4
ITEM: BOX BOUNDS pp pp pp
-3.6000000000000085e+01 3.6000000000000085e+01
-3.6000000000000085e+01 3.6000000000000085e+01
-3.6000000000000085e+01 3.6000000000000085e+01
ITEM: ATOMS id type xs ys zs
2 2 0.514552 0.508689 0.499879
4 4 0.479295 0.488451 0.50964
3 3 0.54071 0.507519 0.500137
1 1 0.624394 0.50005 0.500001
ITEM: TIMESTEP
3500
ITEM: NUMBER OF ATOMS
4
ITEM: BOX BOUNDS pp pp pp
-3.6000000000000085e+01 3.6000000000000085e+01
-3.6000000000000085e+01 3.6000000000000085e+01
-3.6000000000000085e+01 3.6000000000000085e+01
ITEM: ATOMS id type xs ys zs
2 2 0.514009 0.508562 0.499942
4 4 0.479776 0.488805 0.509471
3 3 0.542304 0.507341 0.500199
1 1 0.624356 0.500053 0.500001
ITEM: TIMESTEP
3600
ITEM: NUMBER OF ATOMS
4
ITEM: BOX BOUNDS pp pp pp
-3.6000000000000085e+01 3.6000000000000085e+01
-3.6000000000000085e+01 3.6000000000000085e+01
-3.6000000000000085e+01 3.6000000000000085e+01
ITEM: ATOMS id type xs ys zs
2 2 0.513868 0.508928 0.499774
4 4 0.478954 0.48823 0.509746
3 3 0.544763 0.506889 0.500379
1 1 0.624317 0.500056 0.500001
ITEM: TIMESTEP
3700
ITEM: NUMBER OF ATOMS
4
ITEM: BOX BOUNDS pp pp pp
-3.6000000000000085e+01 3.6000000000000085e+01
-3.6000000000000085e+01 3.6000000000000085e+01
-3.6000000000000085e+01 3.6000000000000085e+01
ITEM: ATOMS id type xs ys zs
2 2 0.513357 0.508645 0.49991
4 4 0.479961 0.488759 0.50949
3 3 0.545176 0.507041 0.5003
1 1 0.624277 0.500059 0.500001
ITEM: TIMESTEP
3800
ITEM: NUMBER OF ATOMS
4
ITEM: BOX BOUNDS pp pp pp
-3.6000000000000085e+01 3.6000000000000085e+01
-3.6000000000000085e+01 3.6000000000000085e+01
-3.6000000000000085e+01 3.6000000000000085e+01
ITEM: ATOMS id type xs ys zs
2 2 0.513255 0.508465 0.499994
4 4 0.480286 0.489008 0.509371
3 3 0.545187 0.507303 0.500175
1 1 0.624236 0.500063 0.500001
ITEM: TIMESTEP
3900
ITEM: NUMBER OF ATOMS
4
ITEM: BOX BOUNDS pp pp pp
-3.6000000000000085e+01 3.6000000000000085e+01
-3.6000000000000085e+01 3.6000000000000085e+01
-3.6000000000000085e+01 3.6000000000000085e+01
ITEM: ATOMS id type xs ys zs
2 2 0.513779 0.508939 0.499768
4 4 0.479194 0.488284 0.509719
3 3 0.545326 0.506683 0.500457
1 1 0.624194 0.500066 0.500001
ITEM: TIMESTEP
4000
ITEM: NUMBER OF ATOMS
4
ITEM: BOX BOUNDS pp pp pp
-3.6000000000000085e+01 3.6000000000000085e+01
-3.6000000000000085e+01 3.6000000000000085e+01
-3.6000000000000085e+01 3.6000000000000085e+01
ITEM: ATOMS id type xs ys zs
2 2 0.514071 0.508632 0.499907
4 4 0.47958 0.488688 0.509527
3 3 0.543521 0.507186 0.500241
1 1 0.624151 0.50007 0.500001
ITEM: TIMESTEP
4100
ITEM: NUMBER OF ATOMS
4
ITEM: BOX BOUNDS pp pp pp
-3.6000000000000085e+01 3.6000000000000085e+01
-3.6000000000000085e+01 3.6000000000000085e+01
-3.6000000000000085e+01 3.6000000000000085e+01
ITEM: ATOMS id type xs ys zs
2 2 0.514459 0.508544 0.499942
4 4 0.479915 0.488783 0.50948
3 3 0.541406 0.507357 0.500182
1 1 0.624106 0.500073 0.500001
ITEM: TIMESTEP
4200
ITEM: NUMBER OF ATOMS
4
ITEM: BOX BOUNDS pp pp pp
-3.6000000000000085e+01 3.6000000000000085e+01
-3.6000000000000085e+01 3.6000000000000085e+01
-3.6000000000000085e+01 3.6000000000000085e+01
ITEM: ATOMS id type xs ys zs
2 2 0.515284 0.508992 0.499724
4 4 0.478614 0.487903 0.509901
3 3 0.540677 0.507152 0.500282
1 1 0.62406 0.500077 0.500001
ITEM: TIMESTEP
4300
ITEM: NUMBER OF ATOMS
4
ITEM: BOX BOUNDS pp pp pp
-3.6000000000000085e+01 3.6000000000000085e+01
-3.6000000000000085e+01 3.6000000000000085e+01
-3.6000000000000085e+01 3.6000000000000085e+01
ITEM: ATOMS id type xs ys zs
2 2 0.515497 0.508784 0.499817
4 4 0.479043 0.488278 0.509723
3 3 0.539147 0.507284 0.500235
1 1 0.624014 0.500081 0.500001
ITEM: TIMESTEP
4400
ITEM: NUMBER OF ATOMS
4
ITEM: BOX BOUNDS pp pp pp
-3.6000000000000085e+01 3.6000000000000085e+01
-3.6000000000000085e+01 3.6000000000000085e+01
-3.6000000000000085e+01 3.6000000000000085e+01
ITEM: ATOMS id type xs ys zs
2 2 0.515503 0.5085 0.499948
4 4 0.479475 0.488714 0.509517
3 3 0.538514 0.507625 0.500081
1 1 0.623966 0.500085 0.500001
ITEM: TIMESTEP
4500
ITEM: NUMBER OF ATOMS
4
ITEM: BOX BOUNDS pp pp pp
-3.6000000000000085e+01 3.6000000000000085e+01
-3.6000000000000085e+01 3.6000000000000085e+01
-3.6000000000000085e+01 3.6000000000000085e+01
ITEM: ATOMS id type xs ys zs
2 2 0.515623 0.508999 0.499715
4 4 0.478651 0.487908 0.509899
3 3 0.539903 0.507052 0.500326
1 1 0.623916 0.500089 0.500001
ITEM: TIMESTEP
4600
ITEM: NUMBER OF ATOMS
4
ITEM: BOX BOUNDS pp pp pp
-3.6000000000000085e+01 3.6000000000000085e+01
-3.6000000000000085e+01 3.6000000000000085e+01
-3.6000000000000085e+01 3.6000000000000085e+01
ITEM: ATOMS id type xs ys zs
2 2 0.515152 0.508768 0.499826
4 4 0.479294 0.488315 0.509703
3 3 0.540927 0.507215 0.500235
1 1 0.623866 0.500093 0.500001
ITEM: TIMESTEP
4700
ITEM: NUMBER OF ATOMS
4
ITEM: BOX BOUNDS pp pp pp
-3.6000000000000085e+01 3.6000000000000085e+01
-3.6000000000000085e+01 3.6000000000000085e+01
-3.6000000000000085e+01 3.6000000000000085e+01
ITEM: ATOMS id type xs ys zs
2 2 0.514522 0.508434 0.499988
4 4 0.480163 0.488999 0.509377
3 3 0.542196 0.507275 0.500188
1 1 0.623814 0.500097 0.500001
ITEM: TIMESTEP
4800
ITEM: NUMBER OF ATOMS
4
ITEM: BOX BOUNDS pp pp pp
-3.6000000000000085e+01 3.6000000000000085e+01
-3.6000000000000085e+01 3.6000000000000085e+01
-3.6000000000000085e+01 3.6000000000000085e+01
ITEM: ATOMS id type xs ys zs
2 2 0.514368 0.508836 0.499803
4 4 0.479368 0.488415 0.509656
3 3 0.544731 0.506676 0.500429
1 1 0.623761 0.500102 0.500001
ITEM: TIMESTEP
4900
ITEM: NUMBER OF ATOMS
4
ITEM: BOX BOUNDS pp pp pp
-3.6000000000000085e+01 3.6000000000000085e+01
-3.6000000000000085e+01 3.6000000000000085e+01
-3.6000000000000085e+01 3.6000000000000085e+01
ITEM: ATOMS id type xs ys zs
2 2 0.51395 0.508684 0.499878
4 4 0.479944 0.488695 0.50952
3 3 0.545683 0.506752 0.500378
1 1 0.623707 0.500106 0.500001
ITEM: TIMESTEP
5000
ITEM: NUMBER OF ATOMS
4
ITEM: BOX BOUNDS pp pp pp
-3.6000000000000085e+01 3.6000000000000085e+01
-3.6000000000000085e+01 3.6000000000000085e+01
-3.6000000000000085e+01 3.6000000000000085e+01
ITEM: ATOMS id type xs ys zs
2 2 0.513658 0.508373 0.500024
4 4 0.480791 0.489218 0.509268
3 3 0.545548 0.507027 0.500248
1 1 0.623652 0.500111 0.500001
ITEM: TIMESTEP
5100
ITEM: NUMBER OF ATOMS
4
ITEM: BOX BOUNDS pp pp pp
-3.6000000000000085e+01 3.6000000000000085e+01
-3.6000000000000085e+01 3.6000000000000085e+01
-3.6000000000000085e+01 3.6000000000000085e+01
ITEM: ATOMS id type xs ys zs
2 2 0.514148 0.508788 0.499826
4 4 0.479689 0.488527 0.5096
3 3 0.545928 0.506588 0.500441
1 1 0.623596 0.500115 0.500001
ITEM: TIMESTEP
5200
ITEM: NUMBER OF ATOMS
4
ITEM: BOX BOUNDS pp pp pp
-3.6000000000000085e+01 3.6000000000000085e+01
-3.6000000000000085e+01 3.6000000000000085e+01
-3.6000000000000085e+01 3.6000000000000085e+01
ITEM: ATOMS id type xs ys zs
2 2 0.514507 0.508702 0.49986
4 4 0.479753 0.488656 0.50954
3 3 0.544552 0.506677 0.500412
1 1 0.623538 0.50012 0.500001
ITEM: TIMESTEP
5300
ITEM: NUMBER OF ATOMS
4
ITEM: BOX BOUNDS pp pp pp
-3.6000000000000085e+01 3.6000000000000085e+01
-3.6000000000000085e+01 3.6000000000000085e+01
-3.6000000000000085e+01 3.6000000000000085e+01
ITEM: ATOMS id type xs ys zs
2 2 0.514821 0.508383 0.500003
4 4 0.480364 0.489052 0.50935
3 3 0.542283 0.507243 0.500175
1 1 0.623479 0.500125 0.500001
ITEM: TIMESTEP
5400
ITEM: NUMBER OF ATOMS
4
ITEM: BOX BOUNDS pp pp pp
-3.6000000000000085e+01 3.6000000000000085e+01
-3.6000000000000085e+01 3.6000000000000085e+01
-3.6000000000000085e+01 3.6000000000000085e+01
ITEM: ATOMS id type xs ys zs
2 2 0.515618 0.508875 0.499765
4 4 0.479267 0.488174 0.509768
3 3 0.541344 0.506841 0.500368
1 1 0.623419 0.50013 0.500002
ITEM: TIMESTEP
5500
ITEM: NUMBER OF ATOMS
4
ITEM: BOX BOUNDS pp pp pp
-3.6000000000000085e+01 3.6000000000000085e+01
-3.6000000000000085e+01 3.6000000000000085e+01
-3.6000000000000085e+01 3.6000000000000085e+01
ITEM: ATOMS id type xs ys zs
2 2 0.516047 0.508782 0.499801
4 4 0.479119 0.488256 0.509732
3 3 0.540106 0.507051 0.500283
1 1 0.623358 0.500135 0.500002
ITEM: TIMESTEP
5600
ITEM: NUMBER OF ATOMS
4
ITEM: BOX BOUNDS pp pp pp
-3.6000000000000085e+01 3.6000000000000085e+01
-3.6000000000000085e+01 3.6000000000000085e+01
-3.6000000000000085e+01 3.6000000000000085e+01
ITEM: ATOMS id type xs ys zs
2 2 0.515994 0.508428 0.499964
4 4 0.479991 0.488888 0.50943
3 3 0.538924 0.507295 0.500182
1 1 0.623296 0.50014 0.500002
ITEM: TIMESTEP
5700
ITEM: NUMBER OF ATOMS
4
ITEM: BOX BOUNDS pp pp pp
-3.6000000000000085e+01 3.6000000000000085e+01
-3.6000000000000085e+01 3.6000000000000085e+01
-3.6000000000000085e+01 3.6000000000000085e+01
ITEM: ATOMS id type xs ys zs
2 2 0.516199 0.508789 0.499794
4 4 0.479124 0.488235 0.509742
3 3 0.54011 0.507011 0.500293
1 1 0.623232 0.500145 0.500002
ITEM: TIMESTEP
5800
ITEM: NUMBER OF ATOMS
4
ITEM: BOX BOUNDS pp pp pp
-3.6000000000000085e+01 3.6000000000000085e+01
-3.6000000000000085e+01 3.6000000000000085e+01
-3.6000000000000085e+01 3.6000000000000085e+01
ITEM: ATOMS id type xs ys zs
2 2 0.515869 0.508838 0.499775
4 4 0.479435 0.488236 0.509737
3 3 0.541265 0.506767 0.500385
1 1 0.623167 0.50015 0.500002
ITEM: TIMESTEP
5900
ITEM: NUMBER OF ATOMS
4
ITEM: BOX BOUNDS pp pp pp
-3.6000000000000085e+01 3.6000000000000085e+01
-3.6000000000000085e+01 3.6000000000000085e+01
-3.6000000000000085e+01 3.6000000000000085e+01
ITEM: ATOMS id type xs ys zs
2 2 0.515204 0.508328 0.500017
4 4 0.480525 0.489135 0.509309
3 3 0.542318 0.507148 0.50019
1 1 0.623101 0.500156 0.500002
ITEM: TIMESTEP
6000
ITEM: NUMBER OF ATOMS
4
ITEM: BOX BOUNDS pp pp pp
-3.6000000000000085e+01 3.6000000000000085e+01
-3.6000000000000085e+01 3.6000000000000085e+01
-3.6000000000000085e+01 3.6000000000000085e+01
ITEM: ATOMS id type xs ys zs
2 2 0.514986 0.508685 0.499856
4 4 0.479974 0.488707 0.509514
3 3 0.544727 0.506432 0.500481
1 1 0.623034 0.500161 0.500002
ITEM: TIMESTEP
6100
ITEM: NUMBER OF ATOMS
4
ITEM: BOX BOUNDS pp pp pp
-3.6000000000000085e+01 3.6000000000000085e+01
-3.6000000000000085e+01 3.6000000000000085e+01
-3.6000000000000085e+01 3.6000000000000085e+01
ITEM: ATOMS id type xs ys zs
2 2 0.514683 0.5087 0.499852
4 4 0.480054 0.488677 0.509526
3 3 0.546246 0.506396 0.500471
1 1 0.622965 0.500167 0.500002
ITEM: TIMESTEP
6200
ITEM: NUMBER OF ATOMS
4
ITEM: BOX BOUNDS pp pp pp
-3.6000000000000085e+01 3.6000000000000085e+01
-3.6000000000000085e+01 3.6000000000000085e+01
-3.6000000000000085e+01 3.6000000000000085e+01
ITEM: ATOMS id type xs ys zs
2 2 0.51425 0.508304 0.500039
4 4 0.481255 0.48938 0.509187
3 3 0.546092 0.506673 0.50034
1 1 0.622895 0.500172 0.500002
ITEM: TIMESTEP
6300
ITEM: NUMBER OF ATOMS
4
ITEM: BOX BOUNDS pp pp pp
-3.6000000000000085e+01 3.6000000000000085e+01
-3.6000000000000085e+01 3.6000000000000085e+01
-3.6000000000000085e+01 3.6000000000000085e+01
ITEM: ATOMS id type xs ys zs
2 2 0.514636 0.5086 0.499897
4 4 0.480386 0.488866 0.509435
3 3 0.546537 0.50639 0.500457
1 1 0.622824 0.500178 0.500002
ITEM: TIMESTEP
6400
ITEM: NUMBER OF ATOMS
4
ITEM: BOX BOUNDS pp pp pp
-3.6000000000000085e+01 3.6000000000000085e+01
-3.6000000000000085e+01 3.6000000000000085e+01
-3.6000000000000085e+01 3.6000000000000085e+01
ITEM: ATOMS id type xs ys zs
2 2 0.515087 0.508721 0.499834
4 4 0.480028 0.488679 0.509526
3 3 0.545683 0.506206 0.500548
1 1 0.622752 0.500184 0.500002
ITEM: TIMESTEP
6500
ITEM: NUMBER OF ATOMS
4
ITEM: BOX BOUNDS pp pp pp
-3.6000000000000085e+01 3.6000000000000085e+01
-3.6000000000000085e+01 3.6000000000000085e+01
-3.6000000000000085e+01 3.6000000000000085e+01
ITEM: ATOMS id type xs ys zs
2 2 0.515337 0.508287 0.500029
4 4 0.480851 0.489269 0.509244
3 3 0.543346 0.506879 0.500267
1 1 0.622678 0.50019 0.500002
ITEM: TIMESTEP
6600
ITEM: NUMBER OF ATOMS
4
ITEM: BOX BOUNDS pp pp pp
-3.6000000000000085e+01 3.6000000000000085e+01
-3.6000000000000085e+01 3.6000000000000085e+01
-3.6000000000000085e+01 3.6000000000000085e+01
ITEM: ATOMS id type xs ys zs
2 2 0.516084 0.508661 0.499846
4 4 0.480022 0.488559 0.509581
3 3 0.542167 0.506644 0.500387
1 1 0.622603 0.500196 0.500003
ITEM: TIMESTEP
6700
ITEM: NUMBER OF ATOMS
4
ITEM: BOX BOUNDS pp pp pp
-3.6000000000000085e+01 3.6000000000000085e+01
-3.6000000000000085e+01 3.6000000000000085e+01
-3.6000000000000085e+01 3.6000000000000085e+01
ITEM: ATOMS id type xs ys zs
2 2 0.516682 0.508794 0.499775
4 4 0.479447 0.48828 0.509717
3 3 0.541134 0.506594 0.500419
1 1 0.622527 0.500202 0.500003
ITEM: TIMESTEP
6800
ITEM: NUMBER OF ATOMS
4
ITEM: BOX BOUNDS pp pp pp
-3.6000000000000085e+01 3.6000000000000085e+01
-3.6000000000000085e+01 3.6000000000000085e+01
-3.6000000000000085e+01 3.6000000000000085e+01
ITEM: ATOMS id type xs ys zs
2 2 0.516674 0.508324 0.499989
4 4 0.480394 0.489054 0.509349
3 3 0.539688 0.507048 0.500228
1 1 0.622449 0.500208 0.500003
ITEM: TIMESTEP
6900
ITEM: NUMBER OF ATOMS
4
ITEM: BOX BOUNDS pp pp pp
-3.6000000000000085e+01 3.6000000000000085e+01
-3.6000000000000085e+01 3.6000000000000085e+01
-3.6000000000000085e+01 3.6000000000000085e+01
ITEM: ATOMS id type xs ys zs
2 2 0.516848 0.508599 0.49986
4 4 0.479885 0.488597 0.509565
3 3 0.540372 0.506733 0.500356
1 1 0.622371 0.500215 0.500003
ITEM: TIMESTEP
7000
ITEM: NUMBER OF ATOMS
4
ITEM: BOX BOUNDS pp pp pp
-3.6000000000000085e+01 3.6000000000000085e+01
-3.6000000000000085e+01 3.6000000000000085e+01
-3.6000000000000085e+01 3.6000000000000085e+01
ITEM: ATOMS id type xs ys zs
2 2 0.516737 0.508787 0.499774
4 4 0.479626 0.488297 0.509707
3 3 0.541795 0.506487 0.500442
1 1 0.622291 0.500221 0.500003
ITEM: TIMESTEP
7100
ITEM: NUMBER OF ATOMS
4
ITEM: BOX BOUNDS pp pp pp
-3.6000000000000085e+01 3.6000000000000085e+01
-3.6000000000000085e+01 3.6000000000000085e+01
-3.6000000000000085e+01 3.6000000000000085e+01
ITEM: ATOMS id type xs ys zs
2 2 0.516031 0.508314 0.500001
4 4 0.48097 0.489197 0.509275
3 3 0.542598 0.506703 0.500325
1 1 0.622209 0.500228 0.500003
ITEM: TIMESTEP
7200
ITEM: NUMBER OF ATOMS
4
ITEM: BOX BOUNDS pp pp pp
-3.6000000000000085e+01 3.6000000000000085e+01
-3.6000000000000085e+01 3.6000000000000085e+01
-3.6000000000000085e+01 3.6000000000000085e+01
ITEM: ATOMS id type xs ys zs
2 2 0.515757 0.508444 0.499945
4 4 0.480651 0.489075 0.509336
3 3 0.544865 0.506348 0.500446
1 1 0.622127 0.500234 0.500003
ITEM: TIMESTEP
7300
ITEM: NUMBER OF ATOMS
4
ITEM: BOX BOUNDS pp pp pp
-3.6000000000000085e+01 3.6000000000000085e+01
-3.6000000000000085e+01 3.6000000000000085e+01
-3.6000000000000085e+01 3.6000000000000085e+01
ITEM: ATOMS id type xs ys zs
2 2 0.515529 0.508708 0.499827
4 4 0.48041 0.488746 0.50949
3 3 0.546784 0.505826 0.500646
1 1 0.622043 0.500241 0.500003
ITEM: TIMESTEP
7400
ITEM: NUMBER OF ATOMS
4
ITEM: BOX BOUNDS pp pp pp
-3.6000000000000085e+01 3.6000000000000085e+01
-3.6000000000000085e+01 3.6000000000000085e+01
-3.6000000000000085e+01 3.6000000000000085e+01
ITEM: ATOMS id type xs ys zs
2 2 0.515052 0.508227 0.500053
4 4 0.481627 0.489501 0.509126
3 3 0.546867 0.506361 0.500394
1 1 0.621958 0.500248 0.500004
ITEM: TIMESTEP
7500
ITEM: NUMBER OF ATOMS
4
ITEM: BOX BOUNDS pp pp pp
-3.6000000000000085e+01 3.6000000000000085e+01
-3.6000000000000085e+01 3.6000000000000085e+01
-3.6000000000000085e+01 3.6000000000000085e+01
ITEM: ATOMS id type xs ys zs
2 2 0.515248 0.50842 0.499961
4 4 0.481289 0.489247 0.509247
3 3 0.547156 0.505997 0.500549
1 1 0.621872 0.500255 0.500004
ITEM: TIMESTEP
7600
ITEM: NUMBER OF ATOMS
4
ITEM: BOX BOUNDS pp pp pp
-3.6000000000000085e+01 3.6000000000000085e+01
-3.6000000000000085e+01 3.6000000000000085e+01
-3.6000000000000085e+01 3.6000000000000085e+01
ITEM: ATOMS id type xs ys zs
2 2 0.515813 0.508649 0.499847
4 4 0.48043 0.488817 0.509457
3 3 0.546895 0.505828 0.500622
1 1 0.621784 0.500262 0.500004
ITEM: TIMESTEP
7700
ITEM: NUMBER OF ATOMS
4
ITEM: BOX BOUNDS pp pp pp
-3.6000000000000085e+01 3.6000000000000085e+01
-3.6000000000000085e+01 3.6000000000000085e+01
-3.6000000000000085e+01 3.6000000000000085e+01
ITEM: ATOMS id type xs ys zs
2 2 0.516015 0.50826 0.50002
4 4 0.481385 0.489412 0.509171
3 3 0.544585 0.506283 0.500446
1 1 0.621695 0.500269 0.500004
ITEM: TIMESTEP
7800
ITEM: NUMBER OF ATOMS
4
ITEM: BOX BOUNDS pp pp pp
-3.6000000000000085e+01 3.6000000000000085e+01
-3.6000000000000085e+01 3.6000000000000085e+01
-3.6000000000000085e+01 3.6000000000000085e+01
ITEM: ATOMS id type xs ys zs
2 2 0.516693 0.508388 0.499949
4 4 0.480864 0.489031 0.509353
3 3 0.543168 0.506452 0.500387
1 1 0.621605 0.500276 0.500004
ITEM: TIMESTEP
7900
ITEM: NUMBER OF ATOMS
4
ITEM: BOX BOUNDS pp pp pp
-3.6000000000000085e+01 3.6000000000000085e+01
-3.6000000000000085e+01 3.6000000000000085e+01
-3.6000000000000085e+01 3.6000000000000085e+01
ITEM: ATOMS id type xs ys zs
2 2 0.517415 0.508759 0.499767
4 4 0.480005 0.488399 0.509655
3 3 0.542247 0.50607 0.500569
1 1 0.621513 0.500284 0.500004
ITEM: TIMESTEP
8000
ITEM: NUMBER OF ATOMS
4
ITEM: BOX BOUNDS pp pp pp
-3.6000000000000085e+01 3.6000000000000085e+01
-3.6000000000000085e+01 3.6000000000000085e+01
-3.6000000000000085e+01 3.6000000000000085e+01
ITEM: ATOMS id type xs ys zs
2 2 0.517511 0.508248 0.499997
4 4 0.480806 0.48918 0.509286
3 3 0.540726 0.506683 0.500311
1 1 0.62142 0.500291 0.500004
ITEM: TIMESTEP
8100
ITEM: NUMBER OF ATOMS
4
ITEM: BOX BOUNDS pp pp pp
-3.6000000000000085e+01 3.6000000000000085e+01
-3.6000000000000085e+01 3.6000000000000085e+01
-3.6000000000000085e+01 3.6000000000000085e+01
ITEM: ATOMS id type xs ys zs
2 2 0.517628 0.508368 0.499939
4 4 0.48075 0.489018 0.509361
3 3 0.540832 0.506447 0.50041
1 1 0.621326 0.500299 0.500005
ITEM: TIMESTEP
8200
ITEM: NUMBER OF ATOMS
4
ITEM: BOX BOUNDS pp pp pp
-3.6000000000000085e+01 3.6000000000000085e+01
-3.6000000000000085e+01 3.6000000000000085e+01
-3.6000000000000085e+01 3.6000000000000085e+01
ITEM: ATOMS id type xs ys zs
2 2 0.517697 0.508698 0.499788
4 4 0.480079 0.488452 0.509629
3 3 0.542384 0.50611 0.50053
1 1 0.621231 0.500306 0.500005
ITEM: TIMESTEP
8300
ITEM: NUMBER OF ATOMS
4
ITEM: BOX BOUNDS pp pp pp