ITEM: TIMESTEP
0
ITEM: NUMBER OF ENTRIES
2
ITEM: BOX BOUNDS pp pp pp
-40 40
-40 40
-40 40
ITEM: ENTRIES c_1[1] c_1[2] c_1[3] c_1[4] 
2.68975 4.9298e-12 6.28e-05 0 
3.04094 0.0140321 3.35048 0 
ITEM: TIMESTEP
100
ITEM: NUMBER OF ENTRIES
2
ITEM: BOX BOUNDS pp pp pp
-40 40
-40 40
-40 40
ITEM: ENTRIES c_1[1] c_1[2] c_1[3] c_1[4] 
2.68978 2.50135e-07 -0.014146 0 
3.04944 3.39979e-06 -0.052152 0 
ITEM: TIMESTEP
118
ITEM: NUMBER OF ENTRIES
2
ITEM: BOX BOUNDS pp pp pp
-40 40
-40 40
-40 40
ITEM: ENTRIES c_1[1] c_1[2] c_1[3] c_1[4] 
2.68979 3.25146e-07 -0.0161281 0 
3.04946 4.22948e-06 -0.0581686 0 
ITEM: TIMESTEP
193
ITEM: NUMBER OF ENTRIES
2
ITEM: BOX BOUNDS pp pp pp
-40 40
-40 40
-40 40
ITEM: ENTRIES c_1[1] c_1[2] c_1[3] c_1[4] 
2.68979 2.87808e-07 -0.0151739 0 
3.04946 4.28167e-06 -0.0585263 0 
ITEM: TIMESTEP
200
ITEM: NUMBER OF ENTRIES
2
ITEM: BOX BOUNDS pp pp pp
-40 40
-40 40
-40 40
ITEM: ENTRIES c_1[1] c_1[2] c_1[3] c_1[4] 
2.68963 3.01556e-06 0.0491167 0 
3.04889 3.5072e-05 0.167504 0 
ITEM: TIMESTEP
244
ITEM: NUMBER OF ENTRIES
2
ITEM: BOX BOUNDS pp pp pp
-40 40
-40 40
-40 40
ITEM: ENTRIES c_1[1] c_1[2] c_1[3] c_1[4] 
2.68979 3.05904e-07 -0.0156436 0 
3.04946 4.2804e-06 -0.0585177 0 
ITEM: TIMESTEP
300
ITEM: NUMBER OF ENTRIES
2
ITEM: BOX BOUNDS pp pp pp
-40 40
-40 40
-40 40
ITEM: ENTRIES c_1[1] c_1[2] c_1[3] c_1[4] 
2.68979 2.83265e-07 -0.0150536 0 
3.04946 4.52409e-06 -0.0601604 0 
ITEM: TIMESTEP
302
ITEM: NUMBER OF ENTRIES
2
ITEM: BOX BOUNDS pp pp pp
-40 40
-40 40
-40 40
ITEM: ENTRIES c_1[1] c_1[2] c_1[3] c_1[4] 
2.68979 3.10419e-07 -0.0157587 0 
3.04946 4.3147e-06 -0.0587517 0 
ITEM: TIMESTEP
363
ITEM: NUMBER OF ENTRIES
2
ITEM: BOX BOUNDS pp pp pp
-40 40
-40 40
-40 40
ITEM: ENTRIES c_1[1] c_1[2] c_1[3] c_1[4] 
2.68979 2.81324e-07 -0.015002 0 
3.04946 4.28704e-06 -0.058563 0 
ITEM: TIMESTEP
400
ITEM: NUMBER OF ENTRIES
2
ITEM: BOX BOUNDS pp pp pp
-40 40
-40 40
-40 40
ITEM: ENTRIES c_1[1] c_1[2] c_1[3] c_1[4] 
2.6898 6.3027e-07 -0.0224548 0 
3.0492 2.43297e-06 0.0441177 0 
ITEM: TIMESTEP
441
ITEM: NUMBER OF ENTRIES
2
ITEM: BOX BOUNDS pp pp pp
-40 40
-40 40
-40 40
ITEM: ENTRIES c_1[1] c_1[2] c_1[3] c_1[4] 
2.68979 2.92282e-07 -0.0152914 0 
3.04946 4.29405e-06 -0.0586109 0 
ITEM: TIMESTEP
500
ITEM: NUMBER OF ENTRIES
2
ITEM: BOX BOUNDS pp pp pp
-40 40
-40 40
-40 40
ITEM: ENTRIES c_1[1] c_1[2] c_1[3] c_1[4] 
2.68981 8.38966e-07 -0.025907 0 
3.04946 4.50601e-06 -0.06004 0 
ITEM: TIMESTEP
509
ITEM: NUMBER OF ENTRIES
2
ITEM: BOX BOUNDS pp pp pp
-40 40
-40 40
-40 40
ITEM: ENTRIES c_1[1] c_1[2] c_1[3] c_1[4] 
2.68979 2.84164e-07 -0.0150775 0 
3.04946 4.26205e-06 -0.0583921 0 
ITEM: TIMESTEP
600
ITEM: NUMBER OF ENTRIES
2
ITEM: BOX BOUNDS pp pp pp
-40 40
-40 40
-40 40
ITEM: ENTRIES c_1[1] c_1[2] c_1[3] c_1[4] 
2.68979 3.30634e-07 -0.0162637 0 
3.04946 4.58044e-06 -0.0605339 0 
ITEM: TIMESTEP
605
ITEM: NUMBER OF ENTRIES
2
ITEM: BOX BOUNDS pp pp pp
-40 40
-40 40
-40 40
ITEM: ENTRIES c_1[1] c_1[2] c_1[3] c_1[4] 
2.68979 2.88072e-07 -0.0151808 0 
3.04946 4.2804e-06 -0.0585177 0 
ITEM: TIMESTEP
700
ITEM: NUMBER OF ENTRIES
2
ITEM: BOX BOUNDS pp pp pp
-40 40
-40 40
-40 40
ITEM: ENTRIES c_1[1] c_1[2] c_1[3] c_1[4] 
2.6899 4.61361e-06 -0.0607527 0 
3.04944 3.13839e-06 -0.050107 0 
ITEM: TIMESTEP
732
ITEM: NUMBER OF ENTRIES
2
ITEM: BOX BOUNDS pp pp pp
-40 40
-40 40
-40 40
ITEM: ENTRIES c_1[1] c_1[2] c_1[3] c_1[4] 
2.68979 2.86996e-07 -0.0151525 0 
3.04946 4.27403e-06 -0.0584741 0 
ITEM: TIMESTEP
800
ITEM: NUMBER OF ENTRIES
2
ITEM: BOX BOUNDS pp pp pp
-40 40
-40 40
-40 40
ITEM: ENTRIES c_1[1] c_1[2] c_1[3] c_1[4] 
2.68764 0.000890814 0.844187 0 
3.05141 0.000877401 -0.837807 0 
ITEM: TIMESTEP
846
ITEM: NUMBER OF ENTRIES
2
ITEM: BOX BOUNDS pp pp pp
-40 40
-40 40
-40 40
ITEM: ENTRIES c_1[1] c_1[2] c_1[3] c_1[4] 
2.68979 2.81252e-07 -0.0150001 0 
3.04946 4.25692e-06 -0.058357 0 
ITEM: TIMESTEP
900
ITEM: NUMBER OF ENTRIES
2
ITEM: BOX BOUNDS pp pp pp
-40 40
-40 40
-40 40
ITEM: ENTRIES c_1[1] c_1[2] c_1[3] c_1[4] 
2.69134 0.00050444 -0.635257 0 
3.04601 0.00218305 1.32153 0 
ITEM: TIMESTEP
980
ITEM: NUMBER OF ENTRIES
2
ITEM: BOX BOUNDS pp pp pp
-40 40
-40 40
-40 40
ITEM: ENTRIES c_1[1] c_1[2] c_1[3] c_1[4] 
2.68979 2.88409e-07 -0.0151897 0 
3.04946 4.28315e-06 -0.0585365 0 
ITEM: TIMESTEP
1000
ITEM: NUMBER OF ENTRIES
2
ITEM: BOX BOUNDS pp pp pp
-40 40
-40 40
-40 40
ITEM: ENTRIES c_1[1] c_1[2] c_1[3] c_1[4] 
2.6893 4.09773e-05 0.181058 0 
3.04898 2.14735e-05 0.131068 0 
ITEM: TIMESTEP
1100
ITEM: NUMBER OF ENTRIES
2
ITEM: BOX BOUNDS pp pp pp
-40 40
-40 40
-40 40
ITEM: ENTRIES c_1[1] c_1[2] c_1[3] c_1[4] 
2.69018 3.68179e-05 -0.171623 0 
3.04876 6.17185e-05 0.222204 0 
ITEM: TIMESTEP
1143
ITEM: NUMBER OF ENTRIES
2
ITEM: BOX BOUNDS pp pp pp
-40 40
-40 40
-40 40
ITEM: ENTRIES c_1[1] c_1[2] c_1[3] c_1[4] 
2.68979 2.88835e-07 -0.0152009 0 
3.04946 4.29653e-06 -0.0586278 0 
ITEM: TIMESTEP
1200
ITEM: NUMBER OF ENTRIES
2
ITEM: BOX BOUNDS pp pp pp
-40 40
-40 40
-40 40
ITEM: ENTRIES c_1[1] c_1[2] c_1[3] c_1[4] 
2.68992 5.75276e-06 -0.0678396 0 
3.04984 5.62205e-05 -0.212076 0 
ITEM: TIMESTEP
1300
ITEM: NUMBER OF ENTRIES
2
ITEM: BOX BOUNDS pp pp pp
-40 40
-40 40
-40 40
ITEM: ENTRIES c_1[1] c_1[2] c_1[3] c_1[4] 
2.68974 2.49992e-08 0.00447206 0 
3.04952 8.35286e-06 -0.0817453 0 
ITEM: TIMESTEP
1330
ITEM: NUMBER OF ENTRIES
2
ITEM: BOX BOUNDS pp pp pp
-40 40
-40 40
-40 40
ITEM: ENTRIES c_1[1] c_1[2] c_1[3] c_1[4] 
2.68979 2.97667e-07 -0.0154316 0 
3.04946 4.24396e-06 -0.058268 0 
ITEM: TIMESTEP
1400
ITEM: NUMBER OF ENTRIES
2
ITEM: BOX BOUNDS pp pp pp
-40 40
-40 40
-40 40
ITEM: ENTRIES c_1[1] c_1[2] c_1[3] c_1[4] 
2.68944 1.91603e-05 0.123807 0 
3.04915 5.3975e-06 0.0657115 0 
ITEM: TIMESTEP
1500
ITEM: NUMBER OF ENTRIES
2
ITEM: BOX BOUNDS pp pp pp
-40 40
-40 40
-40 40
ITEM: ENTRIES c_1[1] c_1[2] c_1[3] c_1[4] 
2.68987 3.08072e-06 -0.0496445 0 
3.04948 5.37918e-06 -0.0655999 0 
ITEM: TIMESTEP
1600
ITEM: NUMBER OF ENTRIES
2
ITEM: BOX BOUNDS pp pp pp
-40 40
-40 40
-40 40
ITEM: ENTRIES c_1[1] c_1[2] c_1[3] c_1[4] 
2.68885 0.000161812 0.359791 0 
3.04793 0.000383862 0.554157 0 
ITEM: TIMESTEP
1643
ITEM: NUMBER OF ENTRIES
2
ITEM: BOX BOUNDS pp pp pp
-40 40
-40 40
-40 40
ITEM: ENTRIES c_1[1] c_1[2] c_1[3] c_1[4] 
2.68979 2.88977e-07 -0.0152047 0 
3.04946 4.29716e-06 -0.0586321 0 
ITEM: TIMESTEP
1700
ITEM: NUMBER OF ENTRIES
2
ITEM: BOX BOUNDS pp pp pp
-40 40
-40 40
-40 40
ITEM: ENTRIES c_1[1] c_1[2] c_1[3] c_1[4] 
2.68985 1.8866e-06 -0.0388494 0 
3.04927 3.58628e-07 0.0169382 0 
ITEM: TIMESTEP
1800
ITEM: NUMBER OF ENTRIES
2
ITEM: BOX BOUNDS pp pp pp
-40 40
-40 40
-40 40
ITEM: ENTRIES c_1[1] c_1[2] c_1[3] c_1[4] 
2.69001 1.35107e-05 -0.103964 0 
3.04947 4.75964e-06 -0.0617067 0 
ITEM: TIMESTEP
1900
ITEM: NUMBER OF ENTRIES
2
ITEM: BOX BOUNDS pp pp pp
-40 40
-40 40
-40 40
ITEM: ENTRIES c_1[1] c_1[2] c_1[3] c_1[4] 
2.69055 0.000128814 -0.321016 0 
3.04948 5.93603e-06 -0.0689117 0 
ITEM: TIMESTEP
2000
ITEM: NUMBER OF ENTRIES
2
ITEM: BOX BOUNDS pp pp pp
-40 40
-40 40
-40 40
ITEM: ENTRIES c_1[1] c_1[2] c_1[3] c_1[4] 
2.68754 0.000977179 0.884162 0 
3.04405 0.00553745 2.10475 0 
ITEM: TIMESTEP
2100
ITEM: NUMBER OF ENTRIES
2
ITEM: BOX BOUNDS pp pp pp
-40 40
-40 40
-40 40
ITEM: ENTRIES c_1[1] c_1[2] c_1[3] c_1[4] 
2.68907 9.18991e-05 0.271144 0 
3.04901 1.79513e-05 0.119838 0 
ITEM: TIMESTEP
2200
ITEM: NUMBER OF ENTRIES
2
ITEM: BOX BOUNDS pp pp pp
-40 40
-40 40
-40 40
ITEM: ENTRIES c_1[1] c_1[2] c_1[3] c_1[4] 
2.68983 1.45077e-06 -0.0340678 0 
3.04938 8.8873e-07 -0.0266643 0 
ITEM: TIMESTEP
2300
ITEM: NUMBER OF ENTRIES
2
ITEM: BOX BOUNDS pp pp pp
-40 40
-40 40
-40 40
ITEM: ENTRIES c_1[1] c_1[2] c_1[3] c_1[4] 
2.68981 7.24774e-07 -0.0240794 0 
3.04928 2.07485e-07 0.0128836 0 
ITEM: TIMESTEP
2400
ITEM: NUMBER OF ENTRIES
2
ITEM: BOX BOUNDS pp pp pp
-40 40
-40 40
-40 40
ITEM: ENTRIES c_1[1] c_1[2] c_1[3] c_1[4] 
2.6898 5.87096e-07 -0.021672 0 
3.04963 2.02073e-05 -0.127145 0 
ITEM: TIMESTEP
2500
ITEM: NUMBER OF ENTRIES
2
ITEM: BOX BOUNDS pp pp pp
-40 40
-40 40
-40 40
ITEM: ENTRIES c_1[1] c_1[2] c_1[3] c_1[4] 
2.68989 3.99178e-06 -0.0565104 0 
3.04945 3.6983e-06 -0.0543934 0 
ITEM: TIMESTEP
2543
ITEM: NUMBER OF ENTRIES
2
ITEM: BOX BOUNDS pp pp pp
-40 40
-40 40
-40 40
ITEM: ENTRIES c_1[1] c_1[2] c_1[3] c_1[4] 
2.68975 2.1159e-10 0.000411427 0 
3.04931 8.29414e-12 -8.14574e-05 0 
ITEM: TIMESTEP
2600
ITEM: NUMBER OF ENTRIES
2
ITEM: BOX BOUNDS pp pp pp
-40 40
-40 40
-40 40
ITEM: ENTRIES c_1[1] c_1[2] c_1[3] c_1[4] 
2.68488 0.0047317 1.9456 0 
3.0515 0.000954355 -0.873776 0 
ITEM: TIMESTEP
2700
ITEM: NUMBER OF ENTRIES
2
ITEM: BOX BOUNDS pp pp pp
-40 40
-40 40
-40 40
ITEM: ENTRIES c_1[1] c_1[2] c_1[3] c_1[4] 
2.68991 5.23816e-06 -0.0647343 0 
3.04907 1.16021e-05 0.0963415 0 
ITEM: TIMESTEP
2800
ITEM: NUMBER OF ENTRIES
2
ITEM: BOX BOUNDS pp pp pp
-40 40
-40 40
-40 40
ITEM: ENTRIES c_1[1] c_1[2] c_1[3] c_1[4] 
2.69145 0.00057564 -0.67861 0 
3.04991 7.05954e-05 -0.237647 0 
ITEM: TIMESTEP
2900
ITEM: NUMBER OF ENTRIES
2
ITEM: BOX BOUNDS pp pp pp
-40 40
-40 40
-40 40
ITEM: ENTRIES c_1[1] c_1[2] c_1[3] c_1[4] 
2.68993 6.4727e-06 -0.0719594 0 
3.04924 1.12587e-06 0.0300116 0 
ITEM: TIMESTEP
3000
ITEM: NUMBER OF ENTRIES
2
ITEM: BOX BOUNDS pp pp pp
-40 40
-40 40
-40 40
ITEM: ENTRIES c_1[1] c_1[2] c_1[3] c_1[4] 
2.6897 5.12022e-07 0.020239 0 
3.04927 3.40876e-07 0.0165137 0 
ITEM: TIMESTEP
3068
ITEM: NUMBER OF ENTRIES
2
ITEM: BOX BOUNDS pp pp pp
-40 40
-40 40
-40 40
ITEM: ENTRIES c_1[1] c_1[2] c_1[3] c_1[4] 
2.68975 1.2862e-09 0.00101438 0 
3.04931 1.77173e-09 0.00119054 0 
ITEM: TIMESTEP
3100
ITEM: NUMBER OF ENTRIES
2
ITEM: BOX BOUNDS pp pp pp
-40 40
-40 40
-40 40
ITEM: ENTRIES c_1[1] c_1[2] c_1[3] c_1[4] 
2.69063 0.000155464 -0.352663 0 
3.04428 0.00507063 2.01408 0 
ITEM: TIMESTEP
3200
ITEM: NUMBER OF ENTRIES
2
ITEM: BOX BOUNDS pp pp pp
-40 40
-40 40
-40 40
ITEM: ENTRIES c_1[1] c_1[2] c_1[3] c_1[4] 
2.69101 0.000318039 -0.504412 0 
3.0493 1.68452e-08 0.00367099 0 
ITEM: TIMESTEP
3300
ITEM: NUMBER OF ENTRIES
2
ITEM: BOX BOUNDS pp pp pp
-40 40
-40 40
-40 40
ITEM: ENTRIES c_1[1] c_1[2] c_1[3] c_1[4] 
2.68971 3.29517e-07 0.0162362 0 
3.04934 1.61426e-07 -0.011364 0 
ITEM: TIMESTEP
3400
ITEM: NUMBER OF ENTRIES
2
ITEM: BOX BOUNDS pp pp pp
-40 40
-40 40
-40 40
ITEM: ENTRIES c_1[1] c_1[2] c_1[3] c_1[4] 
2.68975 2.43804e-09 -0.00139658 0 
3.04932 3.42441e-09 -0.00165515 0 
ITEM: TIMESTEP
3410
ITEM: NUMBER OF ENTRIES
2
ITEM: BOX BOUNDS pp pp pp
-40 40
-40 40
-40 40
ITEM: ENTRIES c_1[1] c_1[2] c_1[3] c_1[4] 
2.68975 2.90213e-11 -0.000152371 0 
3.04931 5.1591e-10 0.000642439 0 
ITEM: TIMESTEP
3500
ITEM: NUMBER OF ENTRIES
2
ITEM: BOX BOUNDS pp pp pp
-40 40
-40 40
-40 40
ITEM: ENTRIES c_1[1] c_1[2] c_1[3] c_1[4] 
2.68971 3.30841e-07 0.0162688 0 
3.0488 5.20199e-05 0.204 0 
ITEM: TIMESTEP
3600
ITEM: NUMBER OF ENTRIES
2
ITEM: BOX BOUNDS pp pp pp
-40 40
-40 40
-40 40
ITEM: ENTRIES c_1[1] c_1[2] c_1[3] c_1[4] 
2.68974 1.49296e-08 0.00345596 0 
3.0493 3.76819e-08 0.00549049 0 
ITEM: TIMESTEP
3642
ITEM: NUMBER OF ENTRIES
2
ITEM: BOX BOUNDS pp pp pp
-40 40
-40 40
-40 40
ITEM: ENTRIES c_1[1] c_1[2] c_1[3] c_1[4] 
2.68975 7.18694e-10 0.000758258 0 
3.04931 1.22175e-09 0.000988637 0 
ITEM: TIMESTEP
3700
ITEM: NUMBER OF ENTRIES
2
ITEM: BOX BOUNDS pp pp pp
-40 40
-40 40
-40 40
ITEM: ENTRIES c_1[1] c_1[2] c_1[3] c_1[4] 
2.68895 0.000126533 0.318161 0 
3.05002 0.000100401 -0.28341 0 
ITEM: TIMESTEP
3800
ITEM: NUMBER OF ENTRIES
2
ITEM: BOX BOUNDS pp pp pp
-40 40
-40 40
-40 40
ITEM: ENTRIES c_1[1] c_1[2] c_1[3] c_1[4] 
2.68974 3.63797e-09 0.00170598 0 
3.04931 3.44408e-09 0.0016599 0 
ITEM: TIMESTEP
3813
ITEM: NUMBER OF ENTRIES
2
ITEM: BOX BOUNDS pp pp pp
-40 40
-40 40
-40 40
ITEM: ENTRIES c_1[1] c_1[2] c_1[3] c_1[4] 
2.68975 4.80132e-11 -0.000195986 0 
3.04931 1.56899e-11 0.000112035 0 
ITEM: TIMESTEP
3900
ITEM: NUMBER OF ENTRIES
2
ITEM: BOX BOUNDS pp pp pp
-40 40
-40 40
-40 40
ITEM: ENTRIES c_1[1] c_1[2] c_1[3] c_1[4] 
2.68975 1.07076e-09 0.00092553 0 
3.04931 2.51409e-09 0.00141819 0 
ITEM: TIMESTEP
3939
ITEM: NUMBER OF ENTRIES
2
ITEM: BOX BOUNDS pp pp pp
-40 40
-40 40
-40 40
ITEM: ENTRIES c_1[1] c_1[2] c_1[3] c_1[4] 
2.68975 1.63853e-10 -0.000362053 0 
3.04931 1.05319e-10 -0.000290267 0 
ITEM: TIMESTEP
4000
ITEM: NUMBER OF ENTRIES
2
ITEM: BOX BOUNDS pp pp pp
-40 40
-40 40
-40 40
ITEM: ENTRIES c_1[1] c_1[2] c_1[3] c_1[4] 
2.68975 1.02499e-09 0.000905534 0 
3.04932 4.01164e-09 -0.00179145 0 
ITEM: TIMESTEP
4002
ITEM: NUMBER OF ENTRIES
2
ITEM: BOX BOUNDS pp pp pp
-40 40
-40 40
-40 40
ITEM: ENTRIES c_1[1] c_1[2] c_1[3] c_1[4] 
2.68975 2.71153e-09 -0.00147283 0 
3.04931 1.2556e-09 -0.00100224 0 
ITEM: TIMESTEP
4100
ITEM: NUMBER OF ENTRIES
2
ITEM: BOX BOUNDS pp pp pp
-40 40
-40 40
-40 40
ITEM: ENTRIES c_1[1] c_1[2] c_1[3] c_1[4] 
2.68974 4.04411e-09 0.00179869 0 
3.0493 2.52066e-08 0.00449057 0 
ITEM: TIMESTEP
4130
ITEM: NUMBER OF ENTRIES
2
ITEM: BOX BOUNDS pp pp pp
-40 40
-40 40
-40 40
ITEM: ENTRIES c_1[1] c_1[2] c_1[3] c_1[4] 
2.68975 1.43714e-11 0.000107225 0 
3.04931 3.8084e-12 5.51971e-05 0 
ITEM: TIMESTEP
4200
ITEM: NUMBER OF ENTRIES
2
ITEM: BOX BOUNDS pp pp pp
-40 40
-40 40
-40 40
ITEM: ENTRIES c_1[1] c_1[2] c_1[3] c_1[4] 
2.68958 5.85939e-06 0.0684654 0 
3.04973 3.49225e-05 -0.167147 0 
ITEM: TIMESTEP
4280
ITEM: NUMBER OF ENTRIES
2
ITEM: BOX BOUNDS pp pp pp
-40 40
-40 40
-40 40
ITEM: ENTRIES c_1[1] c_1[2] c_1[3] c_1[4] 
2.68975 9.3886e-11 0.00027406 0 
3.04931 4.09532e-11 -0.000181004 0 
ITEM: TIMESTEP
4300
ITEM: NUMBER OF ENTRIES
2
ITEM: BOX BOUNDS pp pp pp
-40 40
-40 40
-40 40
ITEM: ENTRIES c_1[1] c_1[2] c_1[3] c_1[4] 
2.68819 0.000483969 0.622234 0 
3.04834 0.000190072 0.389945 0 
ITEM: TIMESTEP
4400
ITEM: NUMBER OF ENTRIES
2
ITEM: BOX BOUNDS pp pp pp
-40 40
-40 40
-40 40
ITEM: ENTRIES c_1[1] c_1[2] c_1[3] c_1[4] 
2.68932 3.69407e-05 0.171909 0 
3.04994 8.00683e-05 -0.25309 0 
ITEM: TIMESTEP
4498
ITEM: NUMBER OF ENTRIES
2
ITEM: BOX BOUNDS pp pp pp
-40 40
-40 40
-40 40
ITEM: ENTRIES c_1[1] c_1[2] c_1[3] c_1[4] 
2.68975 6.35893e-11 -0.000225547 0 
3.04931 3.66826e-13 -1.71307e-05 0 
ITEM: TIMESTEP
4500
ITEM: NUMBER OF ENTRIES
2
ITEM: BOX BOUNDS pp pp pp
-40 40
-40 40
-40 40
ITEM: ENTRIES c_1[1] c_1[2] c_1[3] c_1[4] 
2.72658 0.271308 -14.7325 0 
3.02843 0.0871705 8.35083 0 
ITEM: TIMESTEP
4600
ITEM: NUMBER OF ENTRIES
2
ITEM: BOX BOUNDS pp pp pp
-40 40
-40 40
-40 40
ITEM: ENTRIES c_1[1] c_1[2] c_1[3] c_1[4] 
2.68952 1.03903e-05 0.0911715 0 
3.04957 1.36126e-05 -0.104355 0 
ITEM: TIMESTEP
4700
ITEM: NUMBER OF ENTRIES
2
ITEM: BOX BOUNDS pp pp pp
-40 40
-40 40
-40 40
ITEM: ENTRIES c_1[1] c_1[2] c_1[3] c_1[4] 
2.68975 2.01854e-10 0.00040185 0 
3.04931 5.09221e-10 -0.000638261 0 
ITEM: TIMESTEP
4702
ITEM: NUMBER OF ENTRIES
2
ITEM: BOX BOUNDS pp pp pp
-40 40
-40 40
-40 40
ITEM: ENTRIES c_1[1] c_1[2] c_1[3] c_1[4] 
2.68975 1.0542e-09 0.000918347 0 
3.04931 5.10846e-10 0.000639279 0 
ITEM: TIMESTEP
4800
ITEM: NUMBER OF ENTRIES
2
ITEM: BOX BOUNDS pp pp pp
-40 40
-40 40
-40 40
ITEM: ENTRIES c_1[1] c_1[2] c_1[3] c_1[4] 
2.68976 3.51339e-08 -0.00530161 0 
3.04923 1.29801e-06 0.0322243 0 
ITEM: TIMESTEP
4900
ITEM: NUMBER OF ENTRIES
2
ITEM: BOX BOUNDS pp pp pp
-40 40
-40 40
-40 40
ITEM: ENTRIES c_1[1] c_1[2] c_1[3] c_1[4] 
2.68983 1.37415e-06 -0.033156 0 
3.04929 1.17482e-07 0.00969464 0 
ITEM: TIMESTEP
4969
ITEM: NUMBER OF ENTRIES
2
ITEM: BOX BOUNDS pp pp pp
-40 40
-40 40
-40 40
ITEM: ENTRIES c_1[1] c_1[2] c_1[3] c_1[4] 
2.68975 1.3673e-09 -0.00104587 0 
3.04932 2.62097e-09 -0.00144802 0 
ITEM: TIMESTEP
5000
ITEM: NUMBER OF ENTRIES
2
ITEM: BOX BOUNDS pp pp pp
-40 40
-40 40
-40 40
ITEM: ENTRIES c_1[1] c_1[2] c_1[3] c_1[4] 
2.68981 7.31717e-07 -0.0241945 0 
3.04962 1.86304e-05 -0.122083 0 
ITEM: TIMESTEP
5100
ITEM: NUMBER OF ENTRIES
2
ITEM: BOX BOUNDS pp pp pp
-40 40
-40 40
-40 40
ITEM: ENTRIES c_1[1] c_1[2] c_1[3] c_1[4] 
2.68868 0.00022683 0.425986 0 
3.04697 0.00109637 0.936535 0 
ITEM: TIMESTEP
5200
ITEM: NUMBER OF ENTRIES
2
ITEM: BOX BOUNDS pp pp pp
-40 40
-40 40
-40 40
ITEM: ENTRIES c_1[1] c_1[2] c_1[3] c_1[4] 
2.68972 2.25703e-07 0.0134374 0 
3.04928 1.46421e-07 0.010823 0 
ITEM: TIMESTEP
5270
ITEM: NUMBER OF ENTRIES
2
ITEM: BOX BOUNDS pp pp pp
-40 40
-40 40
-40 40
ITEM: ENTRIES c_1[1] c_1[2] c_1[3] c_1[4] 
2.68975 3.8924e-11 -0.000176463 0 
3.04931 3.6135e-11 -0.000170023 0 
ITEM: TIMESTEP
5300
ITEM: NUMBER OF ENTRIES
2
ITEM: BOX BOUNDS pp pp pp
-40 40
-40 40
-40 40
ITEM: ENTRIES c_1[1] c_1[2] c_1[3] c_1[4] 
2.68971 3.0509e-07 0.0156228 0 
3.05089 0.000500318 -0.632657 0 
ITEM: TIMESTEP
5400
ITEM: NUMBER OF ENTRIES
2
ITEM: BOX BOUNDS pp pp pp
-40 40
-40 40
-40 40
ITEM: ENTRIES c_1[1] c_1[2] c_1[3] c_1[4] 
2.68975 1.15997e-10 0.000304627 0 
3.04931 2.20347e-11 -0.00013277 0 
ITEM: TIMESTEP
5427
ITEM: NUMBER OF ENTRIES
2
ITEM: BOX BOUNDS pp pp pp
-40 40
-40 40
-40 40
ITEM: ENTRIES c_1[1] c_1[2] c_1[3] c_1[4] 
2.68975 1.99503e-10 0.000399503 0 
3.04931 3.74342e-10 0.000547242 0 
ITEM: TIMESTEP
5500
ITEM: NUMBER OF ENTRIES
2
ITEM: BOX BOUNDS pp pp pp
-40 40
-40 40
-40 40
ITEM: ENTRIES c_1[1] c_1[2] c_1[3] c_1[4] 
2.68996 8.71198e-06 -0.083484 0 
3.04893 2.88293e-05 0.151866 0 
ITEM: TIMESTEP
5600
ITEM: NUMBER OF ENTRIES
2
ITEM: BOX BOUNDS pp pp pp
-40 40
-40 40
-40 40
ITEM: ENTRIES c_1[1] c_1[2] c_1[3] c_1[4] 
2.69014 3.04064e-05 -0.155965 0 
3.0492 2.56627e-06 0.0453102 0 
ITEM: TIMESTEP
5700
ITEM: NUMBER OF ENTRIES
2
ITEM: BOX BOUNDS pp pp pp
-40 40
-40 40
-40 40
ITEM: ENTRIES c_1[1] c_1[2] c_1[3] c_1[4] 
2.68996 8.52526e-06 -0.0825845 0 
3.04883 4.61641e-05 0.192175 0 
ITEM: TIMESTEP
5800
ITEM: NUMBER OF ENTRIES
2
ITEM: BOX BOUNDS pp pp pp
-40 40
-40 40
-40 40
ITEM: ENTRIES c_1[1] c_1[2] c_1[3] c_1[4] 
2.68975 3.66081e-10 -0.00054117 0 
3.04931 6.21754e-12 7.05268e-05 0 
ITEM: TIMESTEP
5820
ITEM: NUMBER OF ENTRIES
2
ITEM: BOX BOUNDS pp pp pp
-40 40
-40 40
-40 40
ITEM: ENTRIES c_1[1] c_1[2] c_1[3] c_1[4] 
2.68975 8.88931e-10 -0.000843294 0 
3.04931 3.61656e-10 -0.000537889 0 
ITEM: TIMESTEP
5900
ITEM: NUMBER OF ENTRIES
2
ITEM: BOX BOUNDS pp pp pp
-40 40
-40 40
-40 40
ITEM: ENTRIES c_1[1] c_1[2] c_1[3] c_1[4] 
2.69094 0.000283688 -0.476393 0 
3.04829 0.000209978 0.409857 0 
ITEM: TIMESTEP
6000
ITEM: NUMBER OF ENTRIES
2
ITEM: BOX BOUNDS pp pp pp
-40 40
-40 40
-40 40
ITEM: ENTRIES c_1[1] c_1[2] c_1[3] c_1[4] 
2.68979 2.76516e-07 -0.0148732 0 
3.04936 5.68967e-07 -0.0213348 0 
ITEM: TIMESTEP
6100
ITEM: NUMBER OF ENTRIES
2
ITEM: BOX BOUNDS pp pp pp
-40 40
-40 40
-40 40
ITEM: ENTRIES c_1[1] c_1[2] c_1[3] c_1[4] 
2.69068 0.000174268 -0.373383 0 
3.04951 7.94958e-06 -0.0797475 0 
ITEM: TIMESTEP
6200
ITEM: NUMBER OF ENTRIES
2
ITEM: BOX BOUNDS pp pp pp
-40 40
-40 40
-40 40
ITEM: ENTRIES c_1[1] c_1[2] c_1[3] c_1[4] 
2.68975 2.01869e-09 0.00127081 0 
3.04919 2.77804e-06 0.0471427 0 
ITEM: TIMESTEP
6300
ITEM: NUMBER OF ENTRIES
2
ITEM: BOX BOUNDS pp pp pp
-40 40
-40 40
-40 40
ITEM: ENTRIES c_1[1] c_1[2] c_1[3] c_1[4] 
2.68915 7.10202e-05 0.238361 0 
3.04929 1.01163e-07 0.00899613 0 
ITEM: TIMESTEP
6400
ITEM: NUMBER OF ENTRIES
2
ITEM: BOX BOUNDS pp pp pp
-40 40
-40 40
-40 40
ITEM: ENTRIES c_1[1] c_1[2] c_1[3] c_1[4] 
2.68977 1.10299e-07 -0.00939357 0 
3.04941 1.81535e-06 -0.0381088 0 
ITEM: TIMESTEP
6500
ITEM: NUMBER OF ENTRIES
2
ITEM: BOX BOUNDS pp pp pp
-40 40
-40 40
-40 40
ITEM: ENTRIES c_1[1] c_1[2] c_1[3] c_1[4] 
2.68974 1.30866e-08 0.00323563 0 
3.04924 1.04104e-06 0.0288589 0 
ITEM: TIMESTEP
6600
ITEM: NUMBER OF ENTRIES
2
ITEM: BOX BOUNDS pp pp pp
-40 40
-40 40
-40 40
ITEM: ENTRIES c_1[1] c_1[2] c_1[3] c_1[4] 
2.68974 1.56281e-08 0.00353588 0 
3.04929 7.83693e-08 0.00791805 0 
ITEM: TIMESTEP
6665
ITEM: NUMBER OF ENTRIES
2
ITEM: BOX BOUNDS pp pp pp
-40 40
-40 40
-40 40
ITEM: ENTRIES c_1[1] c_1[2] c_1[3] c_1[4] 
2.68974 9.45214e-09 0.00274986 0 
3.04931 6.75467e-09 0.00232459 0 
ITEM: TIMESTEP
6700
ITEM: NUMBER OF ENTRIES
2
ITEM: BOX BOUNDS pp pp pp
-40 40
-40 40
-40 40
ITEM: ENTRIES c_1[1] c_1[2] c_1[3] c_1[4] 
2.6894 2.37996e-05 0.137984 0 
3.04887 3.83779e-05 0.175221 0 
ITEM: TIMESTEP
6800
ITEM: NUMBER OF ENTRIES
2
ITEM: BOX BOUNDS pp pp pp
-40 40
-40 40
-40 40
ITEM: ENTRIES c_1[1] c_1[2] c_1[3] c_1[4] 
2.68977 5.90265e-08 -0.00687177 0 
3.04932 2.36543e-08 -0.00435011 0 
ITEM: TIMESTEP
6900
ITEM: NUMBER OF ENTRIES
2
ITEM: BOX BOUNDS pp pp pp
-40 40
-40 40
-40 40
ITEM: ENTRIES c_1[1] c_1[2] c_1[3] c_1[4] 
2.68977 1.19457e-07 -0.00977578 0 
3.04919 3.18517e-06 0.0504791 0 
ITEM: TIMESTEP
7000
ITEM: NUMBER OF ENTRIES
2
ITEM: BOX BOUNDS pp pp pp
-40 40
-40 40
-40 40
ITEM: ENTRIES c_1[1] c_1[2] c_1[3] c_1[4] 
2.68988 3.36808e-06 -0.0519082 0 
3.04829 0.000207358 0.407292 0 
ITEM: TIMESTEP
7100
ITEM: NUMBER OF ENTRIES
2
ITEM: BOX BOUNDS pp pp pp
-40 40
-40 40
-40 40
ITEM: ENTRIES c_1[1] c_1[2] c_1[3] c_1[4] 
2.68972 1.61751e-07 0.0113754 0 
3.04931 1.41838e-09 -0.00106522 0 
ITEM: TIMESTEP
7185
ITEM: NUMBER OF ENTRIES
2
ITEM: BOX BOUNDS pp pp pp
-40 40
-40 40
-40 40
ITEM: ENTRIES c_1[1] c_1[2] c_1[3] c_1[4] 
2.68975 1.75519e-11 0.000118497 0 
3.04931 3.96978e-11 0.000178208 0 
ITEM: TIMESTEP
7200
ITEM: NUMBER OF ENTRIES
2
ITEM: BOX BOUNDS pp pp pp
-40 40
-40 40
-40 40
ITEM: ENTRIES c_1[1] c_1[2] c_1[3] c_1[4] 
2.68983 1.37427e-06 -0.0331575 0 
3.04957 1.33073e-05 -0.103179 0 
ITEM: TIMESTEP
7300
ITEM: NUMBER OF ENTRIES
2
ITEM: BOX BOUNDS pp pp pp
-40 40
-40 40
-40 40
ITEM: ENTRIES c_1[1] c_1[2] c_1[3] c_1[4] 
2.6896 4.36565e-06 0.0590975 0 
3.04927 3.79101e-07 0.017415 0 
ITEM: TIMESTEP
7400
ITEM: NUMBER OF ENTRIES
2
ITEM: BOX BOUNDS pp pp pp
-40 40
-40 40
-40 40
ITEM: ENTRIES c_1[1] c_1[2] c_1[3] c_1[4] 
2.68982 1.1565e-06 -0.0304171 0 
3.04869 7.78375e-05 0.24954 0 
ITEM: TIMESTEP
7500
ITEM: NUMBER OF ENTRIES
2
ITEM: BOX BOUNDS pp pp pp
-40 40
-40 40
-40 40
ITEM: ENTRIES c_1[1] c_1[2] c_1[3] c_1[4] 
2.68975 1.09818e-09 0.000937306 0 
3.04931 3.6291e-10 -0.000538821 0 
ITEM: TIMESTEP
7542
ITEM: NUMBER OF ENTRIES
2
ITEM: BOX BOUNDS pp pp pp
-40 40
-40 40
-40 40
ITEM: ENTRIES c_1[1] c_1[2] c_1[3] c_1[4] 
2.68975 4.62409e-13 -1.92335e-05 0 
3.04931 2.23418e-11 0.000133692 0 
ITEM: TIMESTEP
7600
ITEM: NUMBER OF ENTRIES
2
ITEM: BOX BOUNDS pp pp pp
-40 40
-40 40
-40 40
ITEM: ENTRIES c_1[1] c_1[2] c_1[3] c_1[4] 
2.69012 2.72616e-05 -0.14768 0 
3.04916 4.34014e-06 0.0589246 0 
ITEM: TIMESTEP
7700
ITEM: NUMBER OF ENTRIES
2
ITEM: BOX BOUNDS pp pp pp
-40 40
-40 40
-40 40
ITEM: ENTRIES c_1[1] c_1[2] c_1[3] c_1[4] 
2.68964 2.42688e-06 0.0440625 0 
3.04921 2.15736e-06 0.0415438 0 
ITEM: TIMESTEP
7800
ITEM: NUMBER OF ENTRIES
2
ITEM: BOX BOUNDS pp pp pp
-40 40
-40 40
-40 40
ITEM: ENTRIES c_1[1] c_1[2] c_1[3] c_1[4] 
2.68973 1.12726e-07 0.00949636 0 
3.04937 6.83125e-07 -0.0233773 0 
ITEM: TIMESTEP
7899
ITEM: NUMBER OF ENTRIES
2
ITEM: BOX BOUNDS pp pp pp
-40 40
-40 40
-40 40
ITEM: ENTRIES c_1[1] c_1[2] c_1[3] c_1[4] 
2.68975 3.2297e-11 0.000160741 0 
3.04931 8.63045e-11 0.000262762 0 
ITEM: TIMESTEP
7900
ITEM: NUMBER OF ENTRIES
2
ITEM: BOX BOUNDS pp pp pp
-40 40
-40 40
-40 40
ITEM: ENTRIES c_1[1] c_1[2] c_1[3] c_1[4] 
2.68975 3.2297e-11 0.000160741 0 
3.04931 8.63045e-11 0.000262762 0 
ITEM: TIMESTEP
8000
ITEM: NUMBER OF ENTRIES
2
ITEM: BOX BOUNDS pp pp pp
-40 40
-40 40
-40 40
ITEM: ENTRIES c_1[1] c_1[2] c_1[3] c_1[4] 
2.68983 1.32916e-06 -0.0326087 0 
3.04943 2.74405e-06 -0.0468534 0 
ITEM: TIMESTEP
8100
ITEM: NUMBER OF ENTRIES
2
ITEM: BOX BOUNDS pp pp pp
-40 40
-40 40
-40 40
ITEM: ENTRIES c_1[1] c_1[2] c_1[3] c_1[4] 
2.68976 4.69652e-08 -0.00612961 0 
3.04927 4.30203e-07 0.0185516 0 
ITEM: TIMESTEP
8136
ITEM: NUMBER OF ENTRIES
2
ITEM: BOX BOUNDS pp pp pp
-40 40
-40 40
-40 40
ITEM: ENTRIES c_1[1] c_1[2] c_1[3] c_1[4] 
2.68975 4.14084e-11 -0.000182007 0 
3.04931 3.99621e-11 -0.000178801 0 
ITEM: TIMESTEP
8200
ITEM: NUMBER OF ENTRIES
2
ITEM: BOX BOUNDS pp pp pp
-40 40
-40 40
-40 40
ITEM: ENTRIES c_1[1] c_1[2] c_1[3] c_1[4] 
2.69004 1.73188e-05 -0.117708 0 
3.04949 6.26318e-06 -0.0707852 0 
ITEM: TIMESTEP
8300
ITEM: NUMBER OF ENTRIES
2
ITEM: BOX BOUNDS pp pp pp
-40 40
-40 40
-40 40
ITEM: ENTRIES c_1[1] c_1[2] c_1[3] c_1[4] 
2.68974 6.05707e-09 0.00220128 0 
3.04931 6.13324e-10 0.000700471 0 
ITEM: TIMESTEP
8316
ITEM: NUMBER OF ENTRIES
2
ITEM: BOX BOUNDS pp pp pp
-40 40
-40 40
-40 40
ITEM: ENTRIES c_1[1] c_1[2] c_1[3] c_1[4] 
2.68975 3.18835e-12 5.05043e-05 0 
3.04931 2.39658e-10 0.000437866 0 
ITEM: TIMESTEP
8400
ITEM: NUMBER OF ENTRIES
2
ITEM: BOX BOUNDS pp pp pp
-40 40
-40 40
-40 40
ITEM: ENTRIES c_1[1] c_1[2] c_1[3] c_1[4] 
2.68974 3.03449e-08 0.00492706 0 
3.04929 5.66583e-08 0.00673251 0 
ITEM: TIMESTEP
8452
ITEM: NUMBER OF ENTRIES
2
ITEM: BOX BOUNDS pp pp pp
-40 40
-40 40
-40 40
ITEM: ENTRIES c_1[1] c_1[2] c_1[3] c_1[4] 
2.68975 3.91532e-09 -0.00176982 0 
3.04932 3.45059e-09 -0.00166147 0 
ITEM: TIMESTEP
8500
ITEM: NUMBER OF ENTRIES
2
ITEM: BOX BOUNDS pp pp pp
-40 40
-40 40
-40 40
ITEM: ENTRIES c_1[1] c_1[2] c_1[3] c_1[4] 
2.68977 9.26307e-08 -0.0086084 0 
3.04931 9.46758e-10 -0.000870291 0 
ITEM: TIMESTEP
8531
ITEM: NUMBER OF ENTRIES
2
ITEM: BOX BOUNDS pp pp pp
-40 40
-40 40
-40 40
ITEM: ENTRIES c_1[1] c_1[2] c_1[3] c_1[4] 
2.68974 9.17257e-09 0.00270888 0 
3.04931 2.73498e-10 0.000467759 0 
ITEM: TIMESTEP
8600
ITEM: NUMBER OF ENTRIES
2
ITEM: BOX BOUNDS pp pp pp
-40 40
-40 40
-40 40
ITEM: ENTRIES c_1[1] c_1[2] c_1[3] c_1[4] 
2.68982 8.95786e-07 -0.0267699 0 
3.04968 2.64443e-05 -0.145449 0 
ITEM: TIMESTEP
8700
ITEM: NUMBER OF ENTRIES
2
ITEM: BOX BOUNDS pp pp pp
-40 40
-40 40
-40 40
ITEM: ENTRIES c_1[1] c_1[2] c_1[3] c_1[4] 
2.68975 6.94721e-12 -7.45504e-05 0 
3.04931 1.14702e-10 -0.000302922 0 
ITEM: TIMESTEP
8800
ITEM: NUMBER OF ENTRIES
2
ITEM: BOX BOUNDS pp pp pp
-40 40
-40 40
-40 40
ITEM: ENTRIES c_1[1] c_1[2] c_1[3] c_1[4] 
2.68983 1.31259e-06 -0.0324048 0 
3.04912 6.97751e-06 0.0747128 0 
ITEM: TIMESTEP
8867
ITEM: NUMBER OF ENTRIES
2
ITEM: BOX BOUNDS pp pp pp
-40 40
-40 40
-40 40
ITEM: ENTRIES c_1[1] c_1[2] c_1[3] c_1[4] 
2.68975 9.72248e-11 0.00027889 0 
3.04931 1.29982e-11 -0.000101973 0 
ITEM: TIMESTEP
8900
ITEM: NUMBER OF ENTRIES
2
ITEM: BOX BOUNDS pp pp pp
-40 40
-40 40
-40 40
ITEM: ENTRIES c_1[1] c_1[2] c_1[3] c_1[4] 
2.68948 1.44492e-05 0.107515 0 
3.04966 2.46077e-05 -0.140307 0 
ITEM: TIMESTEP
9000
ITEM: NUMBER OF ENTRIES
2
ITEM: BOX BOUNDS pp pp pp
-40 40
-40 40
-40 40
ITEM: ENTRIES c_1[1] c_1[2] c_1[3] c_1[4] 
2.68976 1.27411e-08 -0.00319263 0 
3.04931 1.81427e-09 0.00120475 0 
ITEM: TIMESTEP
9048
ITEM: NUMBER OF ENTRIES
2
ITEM: BOX BOUNDS pp pp pp
-40 40
-40 40
-40 40
ITEM: ENTRIES c_1[1] c_1[2] c_1[3] c_1[4] 
2.68975 6.91214e-10 0.00074362 0 
3.04931 2.3831e-09 -0.00138075 0 
ITEM: TIMESTEP
9100
ITEM: NUMBER OF ENTRIES
2
ITEM: BOX BOUNDS pp pp pp
-40 40
-40 40
-40 40
ITEM: ENTRIES c_1[1] c_1[2] c_1[3] c_1[4] 
2.69022 4.39932e-05 -0.187602 0 
3.04971 3.20076e-05 -0.160019 0 
ITEM: TIMESTEP
9200
ITEM: NUMBER OF ENTRIES
2
ITEM: BOX BOUNDS pp pp pp
-40 40
-40 40
-40 40
ITEM: ENTRIES c_1[1] c_1[2] c_1[3] c_1[4] 
2.68996 9.2977e-06 -0.0862448 0 
3.04924 1.09944e-06 0.0296573 0 
ITEM: TIMESTEP
9300
ITEM: NUMBER OF ENTRIES
2
ITEM: BOX BOUNDS pp pp pp
-40 40
-40 40
-40 40
ITEM: ENTRIES c_1[1] c_1[2] c_1[3] c_1[4] 
2.68974 1.7784e-08 0.0037719 0 
3.0493 1.65703e-08 0.00364092 0 
ITEM: TIMESTEP
9338
ITEM: NUMBER OF ENTRIES
2
ITEM: BOX BOUNDS pp pp pp
-40 40
-40 40
-40 40
ITEM: ENTRIES c_1[1] c_1[2] c_1[3] c_1[4] 
2.68975 7.41743e-11 0.000243597 0 
3.04931 9.88352e-12 -8.89203e-05 0 
ITEM: TIMESTEP
9400
ITEM: NUMBER OF ENTRIES
2
ITEM: BOX BOUNDS pp pp pp
-40 40
-40 40
-40 40
ITEM: ENTRIES c_1[1] c_1[2] c_1[3] c_1[4] 
2.68966 1.42636e-06 0.0337799 0 
3.04958 1.45458e-05 -0.107873 0 
ITEM: TIMESTEP
9500
ITEM: NUMBER OF ENTRIES
2
ITEM: BOX BOUNDS pp pp pp
-40 40
-40 40
-40 40
ITEM: ENTRIES c_1[1] c_1[2] c_1[3] c_1[4] 
2.6893 3.95845e-05 0.177954 0 
3.04986 5.94793e-05 -0.218136 0 
ITEM: TIMESTEP
9600
ITEM: NUMBER OF ENTRIES
2
ITEM: BOX BOUNDS pp pp pp
-40 40
-40 40
-40 40
ITEM: ENTRIES c_1[1] c_1[2] c_1[3] c_1[4] 
2.69022 4.34674e-05 -0.186478 0 
3.04916 4.81051e-06 0.0620356 0 
ITEM: TIMESTEP
9700
ITEM: NUMBER OF ENTRIES
2
ITEM: BOX BOUNDS pp pp pp
-40 40
-40 40
-40 40
ITEM: ENTRIES c_1[1] c_1[2] c_1[3] c_1[4] 
2.68975 2.71339e-10 0.000465909 0 
3.04931 4.12694e-11 -0.000181702 0 
ITEM: TIMESTEP
9705
ITEM: NUMBER OF ENTRIES
2
ITEM: BOX BOUNDS pp pp pp
-40 40
-40 40
-40 40
ITEM: ENTRIES c_1[1] c_1[2] c_1[3] c_1[4] 
2.68975 7.77656e-12 7.88749e-05 0 
3.04931 9.08091e-11 0.000269532 0 
ITEM: TIMESTEP
9800
ITEM: NUMBER OF ENTRIES
2
ITEM: BOX BOUNDS pp pp pp
-40 40
-40 40
-40 40
ITEM: ENTRIES c_1[1] c_1[2] c_1[3] c_1[4] 
2.68947 1.52055e-05 0.110292 0 
3.0485 0.00013187 0.324802 0 
ITEM: TIMESTEP
9859
ITEM: NUMBER OF ENTRIES
2
ITEM: BOX BOUNDS pp pp pp
-40 40
-40 40
-40 40
ITEM: ENTRIES c_1[1] c_1[2] c_1[3] c_1[4] 
2.68975 2.7311e-10 -0.000467427 0 
3.04931 8.72149e-10 -0.000835296 0 
ITEM: TIMESTEP
9900
ITEM: NUMBER OF ENTRIES
2
ITEM: BOX BOUNDS pp pp pp
-40 40
-40 40
-40 40
ITEM: ENTRIES c_1[1] c_1[2] c_1[3] c_1[4] 
2.69075 0.00020184 -0.401835 0 
3.04999 9.22719e-05 -0.271694 0 
ITEM: TIMESTEP
10000
ITEM: NUMBER OF ENTRIES
2
ITEM: BOX BOUNDS pp pp pp
-40 40
-40 40
-40 40
ITEM: ENTRIES c_1[1] c_1[2] c_1[3] c_1[4] 
2.68993 6.38833e-06 -0.0714889 0 
3.04833 0.000193498 0.393445 0 
ITEM: TIMESTEP
10100
ITEM: NUMBER OF ENTRIES
2
ITEM: BOX BOUNDS pp pp pp
-40 40
-40 40
-40 40
ITEM: ENTRIES c_1[1] c_1[2] c_1[3] c_1[4] 
2.68976 4.35485e-08 -0.00590244 0 
3.04924 1.12268e-06 0.029969 0 
ITEM: TIMESTEP
10199
ITEM: NUMBER OF ENTRIES
2
ITEM: BOX BOUNDS pp pp pp
-40 40
-40 40
-40 40
ITEM: ENTRIES c_1[1] c_1[2] c_1[3] c_1[4] 
2.68975 1.04666e-09 0.000915056 0 
3.04931 1.90409e-09 0.00123421 0 
ITEM: TIMESTEP
10200
ITEM: NUMBER OF ENTRIES
2
ITEM: BOX BOUNDS pp pp pp
-40 40
-40 40
-40 40
ITEM: ENTRIES c_1[1] c_1[2] c_1[3] c_1[4] 
2.68975 1.04666e-09 0.000915056 0 
3.04931 1.90409e-09 0.00123421 0 
ITEM: TIMESTEP
10300
ITEM: NUMBER OF ENTRIES
2
ITEM: BOX BOUNDS pp pp pp
-40 40
-40 40
-40 40
ITEM: ENTRIES c_1[1] c_1[2] c_1[3] c_1[4] 
2.69025 5.09072e-05 -0.201806 0 
3.04964 2.11963e-05 -0.130219 0 
ITEM: TIMESTEP
10400
ITEM: NUMBER OF ENTRIES
2
ITEM: BOX BOUNDS pp pp pp
-40 40
-40 40
-40 40
ITEM: ENTRIES c_1[1] c_1[2] c_1[3] c_1[4] 
2.68862 0.000252957 0.449851 0 