----- GAMESS execution script 'rungms' -----
This job is running on host node014
under operating system Linux at Tue Jun 25 08:52:03 CEST 2019
Available scratch disk space (Kbyte units) at beginning of the job is
Filesystem        1K-blocks         Used   Available Use% Mounted on
beegfs_nodev   390626119680 351426663424 39199456256  90% /data
GAMESS temporary binary files will be written to /data/scratch-no-backup/mdi0316/rungms/1221875/tmp
GAMESS supplementary output files will be written to /data/scratch-no-backup/mdi0316/rungms/1221875/tmp
Copying input file gms_SCAN_from_ISOLATED_emim_bf4_T_5_P_90_R_3.9_N311_B3LYP_HES_MP2.inp to your run's scratch directory...
 
Assuming a single but multicore node.
 

 Distributed Data Interface kickoff program.
 Initiating 16 compute processes on 1 nodes to run the following command:
 /home/mdi0316/CODES/gamess_sockets/gamess.00.x gms_SCAN_from_ISOLATED_emim_bf4_T_5_P_90_R_3.9_N311_B3LYP_HES_MP2 

          ******************************************************
          *         GAMESS VERSION = 14 FEB 2018 (R1)         *
          *             FROM IOWA STATE UNIVERSITY             *
          * M.W.SCHMIDT, K.K.BALDRIDGE, J.A.BOATZ, S.T.ELBERT, *
          *   M.S.GORDON, J.H.JENSEN, S.KOSEKI, N.MATSUNAGA,   *
          *          K.A.NGUYEN, S.J.SU, T.L.WINDUS,           *
          *       TOGETHER WITH M.DUPUIS, J.A.MONTGOMERY       *
          *         J.COMPUT.CHEM.  14, 1347-1363(1993)        *
          **************** 64 BIT LINUX VERSION ****************

  SINCE 1993, STUDENTS AND POSTDOCS WORKING AT IOWA STATE UNIVERSITY
  AND ALSO IN THEIR VARIOUS JOBS AFTER LEAVING ISU HAVE MADE IMPORTANT
  CONTRIBUTIONS TO THE CODE:
     IVANA ADAMOVIC, CHRISTINE AIKENS, YURI ALEXEEV, POOJA ARORA,
     ANDREY ASADCHEV, ROB BELL, PRADIPTA BANDYOPADHYAY, JONATHAN BENTZ,
     BRETT BODE, KURT BRORSEN, CALEB CARLIN, GALINA CHABAN, WEI CHEN,
     CHEOL HO CHOI, PAUL DAY, ALBERT DEFUSCO, NUWAN DESILVA, TIM DUDLEY,
     DMITRI FEDOROV, ALEX FINDLATER, GRAHAM FLETCHER, MARK FREITAG,
     KURT GLAESEMANN, ANASTASIA GUININA,
     DAN KEMP, GRANT MERRILL, NORIYUKI MINEZAWA, JONATHAN MULLIN,
     TAKESHI NAGATA, SEAN NEDD, HEATHER NETZLOFF, BOSILJKA NJEGIC, RYAN OLSON,
     MIKE PAK, BUU PHAM,
     SPENCER PRUITT, LUKE ROSKOP, JIM SHOEMAKER, LYUDMILA SLIPCHENKO,
     TONY SMITH, SAROM SOK LEANG, JIE SONG, TETSUYA TAKETSUGU, SIMON WEBB,
     PENG XU, SOOHAENG YOO, FEDERICO ZAHARIEV

  ADDITIONAL CODE HAS BEEN PROVIDED BY COLLABORATORS IN OTHER GROUPS:
     IOWA STATE UNIVERSITY:
          JOE IVANIC, AARON WEST, LAIMUTIS BYTAUTAS, KLAUS RUEDENBERG
     UNIVERSITY OF TOKYO: KIMIHIKO HIRAO, TAKAHITO NAKAJIMA,
          TAKAO TSUNEDA, MUNEAKI KAMIYA, SUSUMU YANAGISAWA,
          KIYOSHI YAGI, MAHITO CHIBA, SEIKEN TOKURA, NAOAKI KAWAKAMI
     UNIVERSITY OF AARHUS: FRANK JENSEN
     UNIVERSITY OF IOWA: VISVALDAS KAIRYS, HUI LI
     NATIONAL INST. OF STANDARDS AND TECHNOLOGY: WALT STEVENS, DAVID GARMER
     UNIVERSITY OF PISA: BENEDETTA MENNUCCI, JACOPO TOMASI
     UNIVERSITY OF MEMPHIS: HENRY KURTZ, PRAKASHAN KORAMBATH
     UNIVERSITY OF ALBERTA: TOBY ZENG, MARIUSZ KLOBUKOWSKI
     UNIVERSITY OF NEW ENGLAND: MARK SPACKMAN
     MIE UNIVERSITY: HIROAKI UMEDA
     NAT. INST. OF ADVANCED INDUSTRIAL SCIENCE AND TECHNOLOGY: KAZUO KITAURA
     MICHIGAN STATE UNIVERSITY:
          KAROL KOWALSKI, MARTA WLOCH, JEFFREY GOUR, JESSE LUTZ,
          WEI LI, PIOTR PIECUCH
     UNIVERSITY OF SILESIA: MONIKA MUSIAL, STANISLAW KUCHARSKI
     FACULTES UNIVERSITAIRES NOTRE-DAME DE LA PAIX:
          OLIVIER QUINET, BENOIT CHAMPAGNE
     UNIVERSITY OF CALIFORNIA - SANTA BARBARA: BERNARD KIRTMAN
     INSTITUTE FOR MOLECULAR SCIENCE:
          KAZUYA ISHIMURA, MICHIO KATOUDA, AND SHIGERU NAGASE
     UNIVERSITY OF NOTRE DAME: ANNA POMOGAEVA, DAN CHIPMAN
     KYUSHU UNIVERSITY:
          HARUYUKI NAKANO,
          FENG LONG GU, JACEK KORCHOWIEC, MARCIN MAKOWSKI, AND YURIKO AOKI,
          HIROTOSHI MORI AND EISAKU MIYOSHI
     PENNSYLVANIA STATE UNIVERSITY:
          TZVETELIN IORDANOV, CHET SWALINA, JONATHAN SKONE,
          SHARON HAMMES-SCHIFFER
     WASEDA UNIVERSITY:
          MASATO KOBAYASHI, TOMOKO AKAMA, TSUGUKI TOUMA,
          TAKESHI YOSHIKAWA, YASUHIRO IKABATA, JUNJI SEINO,
          YUYA NAKAJIMA, HIROMI NAKAI
     NANJING UNIVERSITY: SHUHUA LI
     UNIVERSITY OF NEBRASKA:
          PEIFENG SU, DEJUN SI, NANDUN THELLAMUREGE, YALI WANG, HUI LI
     UNIVERSITY OF ZURICH: ROBERTO PEVERATI, KIM BALDRIDGE
     N. COPERNICUS UNIVERSITY AND JACKSON STATE UNIVERSITY:
          MARIA BARYSZ
     UNIVERSITY OF COPENHAGEN: Jimmy Kromann, CASPER STEINMANN
     TOKYO INSTITUTE OF TECHNOLOGY: HIROYA NAKATA
     NAGOYA UNIVERSITY: YOSHIO NISHIMOTO, STEPHAN IRLE
     MOSCOW STATE UNIVERSITY: VLADIMIR MIRONOV


 PARALLEL VERSION RUNNING ON       16 PROCESSORS IN        1 NODES.

 EXECUTION OF GAMESS BEGUN Tue Jun 25 08:52:04 2019

            ECHO OF THE FIRST FEW INPUT CARDS -
 INPUT CARD> $CONTRL                                                                        
 INPUT CARD>  SCFTYP=RHF                                                                    
 INPUT CARD>  EXETYP=RUN                                                                    
 INPUT CARD>  RUNTYP=HESSIAN                                                                
 INPUT CARD>  MOLPLT=.T.                                                                    
 INPUT CARD>  NOSYM=1                                                                       
 INPUT CARD>  MAXIT=200                                                                     
 INPUT CARD>  ICHARG=0                                                                      
 INPUT CARD>  MULT=1                                                                        
 INPUT CARD>  AIMPAC=.F.                                                                    
 INPUT CARD>  QMTTOL=1e-08                                                                  
 INPUT CARD>  COORD=ZMT                                                                     
 INPUT CARD>  NZVAR=66                                                                      
 INPUT CARD>  MPLEVL=2                                                                      
 INPUT CARD> $END                                                                           
 INPUT CARD> $SYSTEM                                                                        
 INPUT CARD>  MWORDS=8                                                                      
 INPUT CARD>  MEMDDI=256                                                                    
 INPUT CARD> $END                                                                           
 INPUT CARD> $CPHF                                                                          
 INPUT CARD>  CPHF=AO                                                                       
 INPUT CARD> $END                                                                           
 INPUT CARD> $FORCE                                                                         
 INPUT CARD>  VIBANL=.T.                                                                    
 INPUT CARD> $END                                                                           
 INPUT CARD> $SCF                                                                           
 INPUT CARD>  DIRSCF=.T.                                                                    
 INPUT CARD>  NCONV=5                                                                       
 INPUT CARD>  DIIS=.T.                                                                      
 INPUT CARD>  DAMP=.T.                                                                      
 INPUT CARD> $END                                                                           
 INPUT CARD> $BASIS                                                                         
 INPUT CARD>  GBASIS=N311                                                                   
 INPUT CARD>  DIFFSP=.T.                                                                    
 INPUT CARD>  DIFFS=.T.                                                                     
 INPUT CARD>  NDFUNC=1                                                                      
 INPUT CARD>  NPFUNC=1                                                                      
 INPUT CARD>  NGAUSS=6                                                                      
 INPUT CARD>  POLAR=POPN311                                                                 
 INPUT CARD> $END                                                                           
 INPUT CARD> $DATA                                                                          
 INPUT CARD>new.run                                                                         
 INPUT CARD>C1                                                                              
 INPUT CARD> C                                                                              
 INPUT CARD> C  1    CC1                                                                    
 INPUT CARD> N  1    NC2         2    NCN2                                                  
 INPUT CARD> N  2    NN3         1    NNC3        3    dih3                                 
 INPUT CARD> C  4    CC4         2    CCN4        1    dih4                                 
 INPUT CARD> C  4    CC5         2    CCN5        1    dih5                                 
 INPUT CARD> H  6    HH6         4    HHC6        2    dih6                                 
    8000000 WORDS OF MEMORY AVAILABLE

     BASIS OPTIONS
     -------------
     GBASIS=N311         IGAUSS=       6      POLAR=POPN311 
     NDFUNC=       1     NFFUNC=       0     DIFFSP=       T
     NPFUNC=       1      DIFFS=       T     BASNAM=        


     RUN TITLE
     ---------
 new.run                                                                         

 THE POINT GROUP OF THE MOLECULE IS C1      
 THE ORDER OF THE PRINCIPAL AXIS IS     0

 YOUR FULLY SUBSTITUTED Z-MATRIX IS
 C   
 C      1   1.3162994
 N      1   1.3737014  2  115.7533
 N      2   1.5038240  1   99.0218  3   10.4781  0
 C      4   1.3216797  2  108.6667  1   -8.8446  0
 C      4   1.4988452  2  138.3176  1  162.2893  0
 H      6   1.0841965  4  109.1081  2  -63.9596  0
 H      6   1.0904673  4  105.9037  2  177.7349  0
 H      6   1.0786737  4  112.6171  2   58.9079  0
 C      3   1.4747345  1  128.9199  2  174.5398  0
 H      5   1.0759837  4  125.0054  2 -177.1215  0
 H      1   1.0786630  2  124.6732  3  169.9949  0
 H      2   1.0682191  1  130.4598  3 -178.7349  0
 C     10   1.5211558  3  113.0204  1   -4.3201  0
 H     10   1.0923020  3  107.3184  1 -125.9625  0
 H     10   1.0926918  3  107.8472  1  117.8151  0
 H     14   1.0915088 10  111.6099  3  -60.6392  0
 H     14   1.0914144 10  108.6023  3 -179.5380  0
 H     14   1.0916525 10  111.7168  3   61.6663  0
 B      1   3.9000000  2    5.0000  3   90.0000  0
 F     20   1.4177381  1   71.2258  2   -4.4034  0
 F     20   1.4115666 21  120.8722  2   45.2086  0
 F     20   1.4013998 21  106.0323 22  120.4992  0
 F     20   1.4234725 21  105.6089 22 -120.9776  0

 THE MOMENTS OF INERTIA ARE (AMU-ANGSTROM**2)
 IXX=   268.876   IYY=  1247.259   IZZ=  1380.489

 ATOM      ATOMIC                      COORDINATES (BOHR)
           CHARGE         X                   Y                   Z
 C           6.0     3.0437048910       -1.6004196276       -0.6225729132
 C           6.0     0.5904893945       -1.1930127266       -0.5665649897
 N           7.0     4.5361986699        0.4032367792        0.0821397925
 N           7.0     0.6150106677        1.6222083881       -0.1794694629
 C           6.0     2.9599125531        2.3445699504        0.2871106528
 C           6.0    -1.1609472287        3.8111678520       -0.4568822903
 H           1.0    -1.6618450216        4.0222671246       -2.4322962962
 H           1.0    -0.1186747397        5.4688204859        0.1852049176
 H           1.0    -2.8395029910        3.6079406076        0.6816318807
 C           6.0     7.3013895599        0.4941076118        0.4167469125
 H           1.0     3.5297177721        4.2475576663        0.7210773024
 H           1.0     3.9102300099       -3.4263107046       -0.8875990224
 H           1.0    -0.9520577257       -2.4262621766       -0.9843654835
 C           6.0     8.5594727744       -2.0682852539        0.0783557446
 H           1.0     7.6672269997        1.2210332894        2.3137085204
 H           1.0     8.0595379540        1.8480810063       -0.9455048586
 H           1.0     7.8657338500       -3.4424052228        1.4513292105
 H           1.0    10.5894479973       -1.8480791549        0.3690609369
 H           1.0     8.2712194965       -2.8150429795       -1.8229382317
 B           5.0    -4.2164652270       -0.5980982516        0.1527785252
 F           9.0    -3.4770260490        0.2881769196       -2.2649722015
 F           9.0    -2.7922881153        0.0049583820        2.3261308341
 F           9.0    -6.6449848337        0.3698978263        0.5753489067
 F           9.0    -4.2402235497       -3.2813307598       -0.0360427148

          INTERNUCLEAR DISTANCES (ANGS.)
          ------------------------------

                1 C          2 C          3 N          4 N          5 C     

   1 C       0.0000000    1.3162994 *  1.3737014 *  2.1482398 *  2.1428404 *
   2 C       1.3162994 *  0.0000000    2.2783801 *  1.5038240 *  2.2979591 *
   3 N       1.3737014 *  2.2783801 *  0.0000000    2.1773600 *  1.3277463 *
   4 N       2.1482398 *  1.5038240 *  2.1773600 *  0.0000000    1.3216797 *
   5 C       2.1428404 *  2.2979591 *  1.3277463 *  1.3216797 *  0.0000000  
   6 C       3.6275412    2.8062057 *  3.5245751    1.4988452 *  2.3478969 *
   7 H       3.9963186    3.1641573    4.0243752    2.1180039 *  2.9733210 *
   8 H       4.1203613    3.5674591    3.6409013    2.0812015 *  2.3216970 *
   9 H       4.2148595    3.1914257    4.2673640    2.1572196 *  3.1478251  
  10 C       2.5704677 *  3.6985461    1.4747345 *  3.6021289    2.4983354 *
  11 H       3.1856489    3.3424945    2.1299005 *  2.1298290 *  1.0759837 *
  12 H       1.0786630 *  2.1240624 *  2.1165545 *  3.2122176    3.1567590  
  13 H       2.1676271 *  1.0682191 *  3.3158964    2.3364044 *  3.3334388  
  14 C       2.9526902 *  4.2560697    2.4986565 *  4.6374981    3.7743340  
  15 H       3.2603203    4.2401533    2.0801465 *  3.9639097    2.7764535 *
  16 H       3.2255957    4.2722185    2.0872369 *  3.9620789    2.7887200 *
  17 H       2.9437643 *  4.1687899    2.7875863 *  4.7591485    4.0616403  
  18 H       4.0295001    5.3256289    3.4209815    5.5961134    4.6070292  
  19 H       2.9101427 *  4.2069781    2.7969922 *  4.7628223    4.0744550  
  20 B       3.9000000    2.5912503 *  4.6620722    2.8192441 *  4.1050561  
  21 F       3.6960750    2.4607136 *  4.4189926    2.5308687 *  3.8224058  
  22 F       3.5628568    2.4391574 *  4.0612704    2.3961398 *  3.4586985  
  23 F       5.2702408    3.9634897    5.9226077    3.9189699    5.1912387  
  24 F       3.9679506    2.7990582 *  5.0373558    3.6524183    4.8383457  

                6 C          7 H          8 H          9 H         10 C     

   1 C       3.6275412    3.9963186    4.1203613    4.2148595    2.5704677 *
   2 C       2.8062057 *  3.1641573    3.5674591    3.1914257    3.6985461  
   3 N       3.5245751    4.0243752    3.6409013    4.2673640    1.4747345 *
   4 N       1.4988452 *  2.1180039 *  2.0812015 *  2.1572196 *  3.6021289  
   5 C       2.3478969 *  2.9733210 *  2.3216970 *  3.1478251    2.4983354 *
   6 C       0.0000000    1.0841965 *  1.0904673 *  1.0786737 *  4.8319783  
   7 H       1.0841965 *  0.0000000    1.7808370 *  1.7753162 *  5.3156515  
   8 H       1.0904673 *  1.7808370 *  0.0000000    1.7640122 *  4.7289244  
   9 H       1.0786737 *  1.7753162 *  1.7640122 *  0.0000000    5.6153616  
  10 C       4.8319783    5.3156515    4.7289244    5.6153616    0.0000000  
  11 H       2.5696644 *  3.2165466    2.0555938 *  3.3874635    2.8203962 *
  12 H       4.6820511    4.9898755    5.1985125    5.2252622    2.8285482 *
  13 H       3.3143316    3.5174898    4.2464538    3.4599290    4.6918380  
  14 C       6.0182371    6.4349681    6.0827682    6.7461306    1.5211558 *
  15 H       5.0845544    5.7337779    4.8266793    5.7666331    1.0923020 *
  16 H       4.9953270    5.3298138    4.7705680    5.9053377    1.0926918 *
  17 H       6.2104889    6.7265618    6.3669457    6.7953840    2.1744600 *
  18 H       6.9154588    7.3401815    6.8637108    7.6722047    2.1364244 *
  19 H       6.1425273    6.3893830    6.3290430    6.9193997    2.1758928 *
  20 B       2.8570428 *  3.1107554    3.8742295    2.3586395 *  6.1239224  
  21 F       2.4275844 *  2.1988769 *  3.5149863    2.3730365 *  5.8785916  
  22 F       2.6402533 *  3.3492907    3.4124983    2.0959753 *  5.4422309  
  23 F       3.4693415    3.6362377    4.3875128    2.6447170 *  7.3808739  
  24 F       4.0977111    4.2903389    5.1196706    3.7395700    6.4304897  

               11 H         12 H         13 H         14 C         15 H     

   1 C       3.1856489    1.0786630 *  2.1676271 *  2.9526902 *  3.2603203  
   2 C       3.3424945    2.1240624 *  1.0682191 *  4.2560697    4.2401533  
   3 N       2.1299005 *  2.1165545 *  3.3158964    2.4986565 *  2.0801465 *
   4 N       2.1298290 *  3.2122176    2.3364044 *  4.6374981    3.9639097  
   5 C       1.0759837 *  3.1567590    3.3334388    3.7743340    2.7764535 *
   6 C       2.5696644 *  4.6820511    3.3143316    6.0182371    5.0845544  
   7 H       3.2165466    4.9898755    3.5174898    6.4349681    5.7337779  
   8 H       2.0555938 *  5.1985125    4.2464538    6.0827682    4.8266793  
   9 H       3.3874635    5.2252622    3.4599290    6.7461306    5.7666331  
  10 C       2.8203962 *  2.8285482 *  4.6918380    1.5211558 *  1.0923020 *
  11 H       0.0000000    4.1539870    4.3487527    4.2860547    2.8406177 *
  12 H       4.1539870    0.0000000    2.6273692 *  2.6135550 *  3.5875409  
  13 H       4.3487527    2.6273692 *  0.0000000    5.0681462    5.2511911  
  14 C       4.2860547    2.6135550 *  5.0681462    0.0000000    2.1568450 *
  15 H       2.8406177 *  3.5875409    5.2511911    2.1568450 *  0.0000000  
  16 H       2.8523712 *  3.5513793    5.2780059    2.1583784 *  1.7685582 *
  17 H       4.6876214    2.4317324 *  4.8706908    1.0915088 *  2.5118234 *
  18 H       4.9392537    3.6921999    6.1569588    1.0914144 *  2.4673783 *
  19 H       4.6984915    2.3822815 *  4.9051962    1.0916525 *  3.0749964  
  20 B       4.8444059    4.5866069    2.0693223 *  6.8054659    6.4637869  
  21 F       4.5425374    4.4358226    2.0755353 *  6.6077565    6.3947061  
  22 F       4.1175160    4.3323240    2.3816896 *  6.2212277    5.5722251  
  23 F       5.7624962    5.9861146    3.4563271    8.1528900    7.6426411  
  24 F       5.7393019    4.3371898    1.8666155 *  6.8039271    6.8503419  

               16 H         17 H         18 H         19 H         20 B     

   1 C       3.2255957    2.9437643 *  4.0295001    2.9101427 *  3.9000000  
   2 C       4.2722185    4.1687899    5.3256289    4.2069781    2.5912503 *
   3 N       2.0872369 *  2.7875863 *  3.4209815    2.7969922 *  4.6620722  
   4 N       3.9620789    4.7591485    5.5961134    4.7628223    2.8192441 *
   5 C       2.7887200 *  4.0616403    4.6070292    4.0744550    4.1050561  
   6 C       4.9953270    6.2104889    6.9154588    6.1425273    2.8570428 *
   7 H       5.3298138    6.7265618    7.3401815    6.3893830    3.1107554  
   8 H       4.7705680    6.3669457    6.8637108    6.3290430    3.8742295  
   9 H       5.9053377    6.7953840    7.6722047    6.9193997    2.3586395 *
  10 C       1.0926918 *  2.1744600 *  2.1364244 *  2.1758928 *  6.1239224  
  11 H       2.8523712 *  4.6876214    4.9392537    4.6984915    4.8444059  
  12 H       3.5513793    2.4317324 *  3.6921999    2.3822815 *  4.5866069  
  13 H       5.2780059    4.8706908    6.1569588    4.9051962    2.0693223 *
  14 C       2.1583784 *  1.0915088 *  1.0914144 *  1.0916525 *  6.8054659  
  15 H       1.7685582 *  2.5118234 *  2.4673783 *  3.0749964    6.4637869  
  16 H       0.0000000    3.0752264    2.4701940 *  2.5134206 *  6.6493448  
  17 H       3.0752264    0.0000000    1.7655655 *  1.7771872 *  6.6042476  
  18 H       2.4701940 *  1.7655655 *  0.0000000    1.7641584 *  7.8636576  
  19 H       2.5134206 *  1.7771872 *  1.7641584 *  0.0000000    6.7924712  
  20 B       6.6493448    6.6042476    7.8636576    6.7924712    0.0000000  
  21 F       6.1998846    6.6176009    7.6569482    6.4343828    1.4177381 *
  22 F       6.0766239    5.9457256    7.2235066    6.4283250    1.4115666 *
  23 F       7.8618183    7.9528484    9.1959321    8.1704141    1.4013998 *
  24 F       7.0684715    6.4549306    7.8870044    6.6925050    1.4234725 *

               21 F         22 F         23 F         24 F     

   1 C       3.6960750    3.5628568    5.2702408    3.9679506  
   2 C       2.4607136 *  2.4391574 *  3.9634897    2.7990582 *
   3 N       4.4189926    4.0612704    5.9226077    5.0373558  
   4 N       2.5308687 *  2.3961398 *  3.9189699    3.6524183  
   5 C       3.8224058    3.4586985    5.1912387    4.8383457  
   6 C       2.4275844 *  2.6402533 *  3.4693415    4.0977111  
   7 H       2.1988769 *  3.3492907    3.6362377    4.2903389  
   8 H       3.5149863    3.4124983    4.3875128    5.1196706  
   9 H       2.3730365 *  2.0959753 *  2.6447170 *  3.7395700  
  10 C       5.8785916    5.4422309    7.3808739    6.4304897  
  11 H       4.5425374    4.1175160    5.7624962    5.7393019  
  12 H       4.4358226    4.3323240    5.9861146    4.3371898  
  13 H       2.0755353 *  2.3816896 *  3.4563271    1.8666155 *
  14 C       6.6077565    6.2212277    8.1528900    6.8039271  
  15 H       6.3947061    5.5722251    7.6426411    6.8503419  
  16 H       6.1998846    6.0766239    7.8618183    7.0684715  
  17 H       6.6176009    5.9457256    7.9528484    6.4549306  
  18 H       7.6569482    7.2235066    9.1959321    7.8870044  
  19 H       6.4343828    6.4283250    8.1704141    6.6925050  
  20 B       1.4177381 *  1.4115666 *  1.4013998 *  1.4234725 *
  21 F       0.0000000    2.4609477 *  2.2519626 *  2.2632449 *
  22 F       2.4609477 *  0.0000000    2.2477074 *  2.2746053 *
  23 F       2.2519626 *  2.2477074 *  0.0000000    2.3360731 *
  24 F       2.2632449 *  2.2746053 *  2.3360731 *  0.0000000  

  * ... LESS THAN  3.000


     ATOMIC BASIS SET
     ----------------
 THE CONTRACTED PRIMITIVE FUNCTIONS HAVE BEEN UNNORMALIZED
 THE CONTRACTED BASIS FUNCTIONS ARE NOW NORMALIZED TO UNITY

  SHELL TYPE  PRIMITIVE        EXPONENT          CONTRACTION COEFFICIENT(S)

 C         

      1   S       1          4563.2400000    0.001966650249
      1   S       2           682.0240000    0.015230601932
      1   S       3           154.9730000    0.076126909656
      1   S       4            44.4553000    0.260801033080
      1   S       5            13.0290000    0.616462078191
      1   S       6             1.8277300    0.221006028032

      2   L       7            20.9642000    0.114660080729    0.040248692673
      2   L       8             4.8033100    0.919999647749    0.237593956746
      2   L       9             1.4593300   -0.003030682134    0.815853851473

      3   L      10             0.4834560    1.000000000000    1.000000000000

      4   L      11             0.1455850    1.000000000000    1.000000000000

      5   L      12             0.0438000    1.000000000000    1.000000000000

      6   D      13             0.6260000    1.000000000000

 C         

      7   S      14          4563.2400000    0.001966650249
      7   S      15           682.0240000    0.015230601932
      7   S      16           154.9730000    0.076126909656
      7   S      17            44.4553000    0.260801033080
      7   S      18            13.0290000    0.616462078191
      7   S      19             1.8277300    0.221006028032

      8   L      20            20.9642000    0.114660080729    0.040248692673
      8   L      21             4.8033100    0.919999647749    0.237593956746
      8   L      22             1.4593300   -0.003030682134    0.815853851473

      9   L      23             0.4834560    1.000000000000    1.000000000000

     10   L      24             0.1455850    1.000000000000    1.000000000000

     11   L      25             0.0438000    1.000000000000    1.000000000000

     12   D      26             0.6260000    1.000000000000

 N         

     13   S      27          6293.4800000    0.001969788147
     13   S      28           949.0440000    0.014961285923
     13   S      29           218.7760000    0.073500530843
     13   S      30            63.6916000    0.248936765774
     13   S      31            18.8282000    0.602459433142
     13   S      32             2.7202300    0.256201758938

     14   L      33            30.6331000    0.111906079519    0.038311918640
     14   L      34             7.0261400    0.921666654920    0.237403115502
     14   L      35             2.1120500   -0.002569191826    0.817592397779

     15   L      36             0.6840090    1.000000000000    1.000000000000

     16   L      37             0.2008780    1.000000000000    1.000000000000

     17   L      38             0.0639000    1.000000000000    1.000000000000

     18   D      39             0.9130000    1.000000000000

 N         

     19   S      40          6293.4800000    0.001969788147
     19   S      41           949.0440000    0.014961285923
     19   S      42           218.7760000    0.073500530843
     19   S      43            63.6916000    0.248936765774
     19   S      44            18.8282000    0.602459433142
     19   S      45             2.7202300    0.256201758938

     20   L      46            30.6331000    0.111906079519    0.038311918640
     20   L      47             7.0261400    0.921666654920    0.237403115502
     20   L      48             2.1120500   -0.002569191826    0.817592397779

     21   L      49             0.6840090    1.000000000000    1.000000000000

     22   L      50             0.2008780    1.000000000000    1.000000000000

     23   L      51             0.0639000    1.000000000000    1.000000000000

     24   D      52             0.9130000    1.000000000000

 C         

     25   S      53          4563.2400000    0.001966650249
     25   S      54           682.0240000    0.015230601932
     25   S      55           154.9730000    0.076126909656
     25   S      56            44.4553000    0.260801033080
     25   S      57            13.0290000    0.616462078191
     25   S      58             1.8277300    0.221006028032

     26   L      59            20.9642000    0.114660080729    0.040248692673
     26   L      60             4.8033100    0.919999647749    0.237593956746
     26   L      61             1.4593300   -0.003030682134    0.815853851473

     27   L      62             0.4834560    1.000000000000    1.000000000000

     28   L      63             0.1455850    1.000000000000    1.000000000000

     29   L      64             0.0438000    1.000000000000    1.000000000000

     30   D      65             0.6260000    1.000000000000

 C         

     31   S      66          4563.2400000    0.001966650249
     31   S      67           682.0240000    0.015230601932
     31   S      68           154.9730000    0.076126909656
     31   S      69            44.4553000    0.260801033080
     31   S      70            13.0290000    0.616462078191
     31   S      71             1.8277300    0.221006028032

     32   L      72            20.9642000    0.114660080729    0.040248692673
     32   L      73             4.8033100    0.919999647749    0.237593956746
     32   L      74             1.4593300   -0.003030682134    0.815853851473

     33   L      75             0.4834560    1.000000000000    1.000000000000

     34   L      76             0.1455850    1.000000000000    1.000000000000

     35   L      77             0.0438000    1.000000000000    1.000000000000

     36   D      78             0.6260000    1.000000000000

 H         

     37   S      79            33.8650000    0.025493814541
     37   S      80             5.0947900    0.190373108582
     37   S      81             1.1587900    0.852161486043

     38   S      82             0.3258400    1.000000000000

     39   S      83             0.1027410    1.000000000000

     40   S      84             0.0360000    1.000000000000

     41   P      85             0.7500000    1.000000000000

 H         

     42   S      86            33.8650000    0.025493814541
     42   S      87             5.0947900    0.190373108582
     42   S      88             1.1587900    0.852161486043

     43   S      89             0.3258400    1.000000000000

     44   S      90             0.1027410    1.000000000000

     45   S      91             0.0360000    1.000000000000

     46   P      92             0.7500000    1.000000000000

 H         

     47   S      93            33.8650000    0.025493814541
     47   S      94             5.0947900    0.190373108582
     47   S      95             1.1587900    0.852161486043

     48   S      96             0.3258400    1.000000000000

     49   S      97             0.1027410    1.000000000000

     50   S      98             0.0360000    1.000000000000

     51   P      99             0.7500000    1.000000000000

 C         

     52   S     100          4563.2400000    0.001966650249
     52   S     101           682.0240000    0.015230601932
     52   S     102           154.9730000    0.076126909656
     52   S     103            44.4553000    0.260801033080
     52   S     104            13.0290000    0.616462078191
     52   S     105             1.8277300    0.221006028032

     53   L     106            20.9642000    0.114660080729    0.040248692673
     53   L     107             4.8033100    0.919999647749    0.237593956746
     53   L     108             1.4593300   -0.003030682134    0.815853851473

     54   L     109             0.4834560    1.000000000000    1.000000000000

     55   L     110             0.1455850    1.000000000000    1.000000000000

     56   L     111             0.0438000    1.000000000000    1.000000000000

     57   D     112             0.6260000    1.000000000000

 H         

     58   S     113            33.8650000    0.025493814541
     58   S     114             5.0947900    0.190373108582
     58   S     115             1.1587900    0.852161486043

     59   S     116             0.3258400    1.000000000000

     60   S     117             0.1027410    1.000000000000

     61   S     118             0.0360000    1.000000000000

     62   P     119             0.7500000    1.000000000000

 H         

     63   S     120            33.8650000    0.025493814541
     63   S     121             5.0947900    0.190373108582
     63   S     122             1.1587900    0.852161486043

     64   S     123             0.3258400    1.000000000000

     65   S     124             0.1027410    1.000000000000

     66   S     125             0.0360000    1.000000000000

     67   P     126             0.7500000    1.000000000000

 H         

     68   S     127            33.8650000    0.025493814541
     68   S     128             5.0947900    0.190373108582
     68   S     129             1.1587900    0.852161486043

     69   S     130             0.3258400    1.000000000000

     70   S     131             0.1027410    1.000000000000

     71   S     132             0.0360000    1.000000000000

     72   P     133             0.7500000    1.000000000000

 C         

     73   S     134          4563.2400000    0.001966650249
     73   S     135           682.0240000    0.015230601932
     73   S     136           154.9730000    0.076126909656
     73   S     137            44.4553000    0.260801033080
     73   S     138            13.0290000    0.616462078191
     73   S     139             1.8277300    0.221006028032

     74   L     140            20.9642000    0.114660080729    0.040248692673
     74   L     141             4.8033100    0.919999647749    0.237593956746
     74   L     142             1.4593300   -0.003030682134    0.815853851473

     75   L     143             0.4834560    1.000000000000    1.000000000000

     76   L     144             0.1455850    1.000000000000    1.000000000000

     77   L     145             0.0438000    1.000000000000    1.000000000000

     78   D     146             0.6260000    1.000000000000

 H         

     79   S     147            33.8650000    0.025493814541
     79   S     148             5.0947900    0.190373108582
     79   S     149             1.1587900    0.852161486043

     80   S     150             0.3258400    1.000000000000

     81   S     151             0.1027410    1.000000000000

     82   S     152             0.0360000    1.000000000000

     83   P     153             0.7500000    1.000000000000

 H         

     84   S     154            33.8650000    0.025493814541
     84   S     155             5.0947900    0.190373108582
     84   S     156             1.1587900    0.852161486043

     85   S     157             0.3258400    1.000000000000

     86   S     158             0.1027410    1.000000000000

     87   S     159             0.0360000    1.000000000000

     88   P     160             0.7500000    1.000000000000

 H         

     89   S     161            33.8650000    0.025493814541
     89   S     162             5.0947900    0.190373108582
     89   S     163             1.1587900    0.852161486043

     90   S     164             0.3258400    1.000000000000

     91   S     165             0.1027410    1.000000000000

     92   S     166             0.0360000    1.000000000000

     93   P     167             0.7500000    1.000000000000

 H         

     94   S     168            33.8650000    0.025493814541
     94   S     169             5.0947900    0.190373108582
     94   S     170             1.1587900    0.852161486043

     95   S     171             0.3258400    1.000000000000

     96   S     172             0.1027410    1.000000000000

     97   S     173             0.0360000    1.000000000000

     98   P     174             0.7500000    1.000000000000

 H         

     99   S     175            33.8650000    0.025493814541
     99   S     176             5.0947900    0.190373108582
     99   S     177             1.1587900    0.852161486043

    100   S     178             0.3258400    1.000000000000

    101   S     179             0.1027410    1.000000000000

    102   S     180             0.0360000    1.000000000000

    103   P     181             0.7500000    1.000000000000

 B         

    104   S     182          2858.8900000    0.002153749067
    104   S     183           428.1400000    0.016582292818
    104   S     184            97.5282000    0.082186964406
    104   S     185            27.9693000    0.276617880201
    104   S     186             8.2157700    0.629315727452
    104   S     187             1.1127800    0.173769924743

    105   L     188            13.2415000    0.117442942252    0.041809998866
    105   L     189             3.0016600    0.918001548610    0.236574993582
    105   L     190             0.9128560   -0.002651048696    0.816213977857

    106   L     191             0.3154540    1.000000000000    1.000000000000

    107   L     192             0.0988563    1.000000000000    1.000000000000

    108   L     193             0.0315000    1.000000000000    1.000000000000

    109   D     194             0.4010000    1.000000000000

 F         

    110   S     195         11427.1000000    0.001800930156
    110   S     196          1722.3500000    0.013741901192
    110   S     197           395.7460000    0.068133405910
    110   S     198           115.1390000    0.233325020240
    110   S     199            33.6026000    0.589086051102
    110   S     200             4.9190100    0.299505025981

    111   L     201            55.4441000    0.114536015543    0.035460887379
    111   L     202            12.6323000    0.920512124917    0.237450915490
    111   L     203             3.7175600   -0.003378040458    0.820457707996

    112   L     204             1.1654500    1.000000000000    1.000000000000

    113   L     205             0.3218920    1.000000000000    1.000000000000

    114   L     206             0.1076000    1.000000000000    1.000000000000

    115   D     207             1.7500000    1.000000000000

 F         

    116   S     208         11427.1000000    0.001800930156
    116   S     209          1722.3500000    0.013741901192
    116   S     210           395.7460000    0.068133405910
    116   S     211           115.1390000    0.233325020240
    116   S     212            33.6026000    0.589086051102
    116   S     213             4.9190100    0.299505025981

    117   L     214            55.4441000    0.114536015543    0.035460887379
    117   L     215            12.6323000    0.920512124917    0.237450915490
    117   L     216             3.7175600   -0.003378040458    0.820457707996

    118   L     217             1.1654500    1.000000000000    1.000000000000

    119   L     218             0.3218920    1.000000000000    1.000000000000

    120   L     219             0.1076000    1.000000000000    1.000000000000

    121   D     220             1.7500000    1.000000000000

 F         

    122   S     221         11427.1000000    0.001800930156
    122   S     222          1722.3500000    0.013741901192
    122   S     223           395.7460000    0.068133405910
    122   S     224           115.1390000    0.233325020240
    122   S     225            33.6026000    0.589086051102
    122   S     226             4.9190100    0.299505025981

    123   L     227            55.4441000    0.114536015543    0.035460887379
    123   L     228            12.6323000    0.920512124917    0.237450915490
    123   L     229             3.7175600   -0.003378040458    0.820457707996

    124   L     230             1.1654500    1.000000000000    1.000000000000

    125   L     231             0.3218920    1.000000000000    1.000000000000

    126   L     232             0.1076000    1.000000000000    1.000000000000

    127   D     233             1.7500000    1.000000000000

 F         

    128   S     234         11427.1000000    0.001800930156
    128   S     235          1722.3500000    0.013741901192
    128   S     236           395.7460000    0.068133405910
    128   S     237           115.1390000    0.233325020240
    128   S     238            33.6026000    0.589086051102
    128   S     239             4.9190100    0.299505025981

    129   L     240            55.4441000    0.114536015543    0.035460887379
    129   L     241            12.6323000    0.920512124917    0.237450915490
    129   L     242             3.7175600   -0.003378040458    0.820457707996

    130   L     243             1.1654500    1.000000000000    1.000000000000

    131   L     244             0.3218920    1.000000000000    1.000000000000

    132   L     245             0.1076000    1.000000000000    1.000000000000

    133   D     246             1.7500000    1.000000000000

 TOTAL NUMBER OF BASIS SET SHELLS             =  133
 NUMBER OF CARTESIAN GAUSSIAN BASIS FUNCTIONS =  376
 NUMBER OF ELECTRONS                          =  102
 CHARGE OF MOLECULE                           =    0
 SPIN MULTIPLICITY                            =    1
 NUMBER OF OCCUPIED ORBITALS (ALPHA)          =   51
 NUMBER OF OCCUPIED ORBITALS (BETA )          =   51
 TOTAL NUMBER OF ATOMS                        =   24
 THE NUCLEAR REPULSION ENERGY IS      890.7170713702

     $CONTRL OPTIONS
     ---------------
 SCFTYP=RHF          RUNTYP=HESSIAN      EXETYP=RUN     
 MPLEVL=       2     CITYP =NONE         CCTYP =NONE         VBTYP =NONE    
 DFTTYP=NONE         TDDFT =NONE    
 MULT  =       1     ICHARG=       0     NZVAR =      66     COORD =ZMT     
 PP    =NONE         RELWFN=NONE         LOCAL =NONE         NUMGRD=       F
 ISPHER=      -1     NOSYM =       1     MAXIT =     200     UNITS =ANGS    
 PLTORB=       F     MOLPLT=       T     AIMPAC=       F     FRIEND=        
 NPRINT=       7     IREST =       0     GEOM  =INPUT   
 NORMF =       0     NORMP =       0     ITOL  =      20     ICUT  =       9
 INTTYP=BEST         GRDTYP=BEST         QMTTOL= 1.0E-08

     $SYSTEM OPTIONS
     ---------------
  REPLICATED MEMORY=     8000000 WORDS (ON EVERY NODE).
 DISTRIBUTED MEMDDI=         256 MILLION WORDS IN AGGREGATE,
 MEMDDI DISTRIBUTED OVER  16 PROCESSORS IS    16000000 WORDS/PROCESSOR.
 TOTAL MEMORY REQUESTED ON EACH PROCESSOR=    24000000 WORDS.
 TIMLIM=      525600.00 MINUTES, OR     365.0 DAYS.
 PARALL= T  BALTYP=  DLB     KDIAG=    0  COREFL= F
 MXSEQ2=     300 MXSEQ3=     150  mem10=         0

          ----------------
          PROPERTIES INPUT
          ----------------

     MOMENTS            FIELD           POTENTIAL          DENSITY
 IEMOM =       1   IEFLD =       0   IEPOT =       0   IEDEN =       0
 WHERE =COMASS     WHERE =NUCLEI     WHERE =NUCLEI     WHERE =NUCLEI  
 OUTPUT=BOTH       OUTPUT=BOTH       OUTPUT=BOTH       OUTPUT=BOTH    
 IEMINT=       0   IEFINT=       0                     IEDINT=       0
                                                       MORB  =       0
          EXTRAPOLATION IN EFFECT
          DAMPING IN EFFECT
          DIIS IN EFFECT
 ORBITAL PRINTING OPTION: NPREO=     1   376     2     1

     -------------------------------
     INTEGRAL TRANSFORMATION OPTIONS
     -------------------------------
     NWORD  =            0
     CUTOFF = 1.0E-09     MPTRAN =       0
     DIRTRF =       T     AOINTS =DUP     

          ----------------------
          INTEGRAL INPUT OPTIONS
          ----------------------
 NOPK  =       1 NORDER=       0 SCHWRZ=       T

          -----------------------
          MP2 CONTROL INFORMATION
          -----------------------
          NACORE =       13  NBCORE =       13
          LMOMP2 =        F  AOINTS = DUP     
          METHOD =        2  NWORD  =               0
          MP2PRP =        F  OSPT   = NONE    
          CUTOFF = 1.00E-09  CPHFBS = BASISAO 
          CODE   = DDI     

          NUMBER OF CORE -A-  ORBITALS =    13
          NUMBER OF CORE -B-  ORBITALS =    13
          NUMBER OF OCC. -A-  ORBITALS =    51
          NUMBER OF OCC. -B-  ORBITALS =    51
          NUMBER OF MOLECULAR ORBITALS =   376
          NUMBER OF   BASIS  FUNCTIONS =   376


     ------------------------------------------
     THE POINT GROUP IS C1 , NAXIS= 1, ORDER= 1
     ------------------------------------------

     DIMENSIONS OF THE SYMMETRY SUBSPACES ARE
 A   =  376

 ..... DONE SETTING UP THE RUN .....
 CPU     0: STEP CPU TIME=     0.05 TOTAL CPU TIME=          0.0 (      0.0 MIN)
 TOTAL WALL CLOCK TIME=          0.1 SECONDS, CPU UTILIZATION IS    50.00%

     ---------------------------------
     HESSIAN MATRIX CONTROL PARAMETERS
     ---------------------------------
     METHOD=SEMINUM    NVIB  =       2   VIBSIZ= 0.01000
     RDHESS=       F   PURIFY=       F   PRTIFC=       F
     VIBANL=       T   DECOMP=       F   PROJCT=       F
     SCLFAC= 1.00000   PRTSCN=       F   NPRT  =       0
     PULCOR=       F   NPUN  =       0   REDOVB=       T
     HSSTYP=GENERAL 
     THERMOCHEMISTRY WILL BE PRINTED FOR    1 TEMPERATURES:
      298.15000

   --- ENCODED Z MATRIX ---
 COORD  TYPE   I   J   K   L   M   N
    1      1    2   1
    2      1    3   1
    3      2    3   1   2
    4      1    4   2
    5      2    4   2   1
    6      3    4   2   1   3
    7      1    5   4
    8      2    5   4   2
    9      3    5   4   2   1
   10      1    6   4
   11      2    6   4   2
   12      3    6   4   2   1
   13      1    7   6
   14      2    7   6   4
   15      3    7   6   4   2
   16      1    8   6
   17      2    8   6   4
   18      3    8   6   4   2
   19      1    9   6
   20      2    9   6   4
   21      3    9   6   4   2
   22      1   10   3
   23      2   10   3   1
   24      3   10   3   1   2
   25      1   11   5
   26      2   11   5   4
   27      3   11   5   4   2
   28      1   12   1
   29      2   12   1   2
   30      3   12   1   2   3
   31      1   13   2
   32      2   13   2   1
   33      3   13   2   1   3
   34      1   14  10
   35      2   14  10   3
   36      3   14  10   3   1
   37      1   15  10
   38      2   15  10   3
   39      3   15  10   3   1
   40      1   16  10
   41      2   16  10   3
   42      3   16  10   3   1
   43      1   17  14
   44      2   17  14  10
   45      3   17  14  10   3
   46      1   18  14
   47      2   18  14  10
   48      3   18  14  10   3
   49      1   19  14
   50      2   19  14  10
   51      3   19  14  10   3
   52      1   20   1
   53      2   20   1   2
   54      3   20   1   2   3
   55      1   21  20
   56      2   21  20   1
   57      3   21  20   1   2
   58      1   22  20
   59      2   22  20  21
   60      3   22  20  21   2
   61      1   23  20
   62      2   23  20  21
   63      3   23  20  21  22
   64      1   24  20
   65      2   24  20  21
   66      3   24  20  21  22

 THE DETERMINANT OF THE G MATRIX IS 10**(   -60)


                     --------------------
                     INTERNAL COORDINATES
                     --------------------

                 - - ATOMS - -         COORDINATE      COORDINATE
 NO.   TYPE    I  J  K  L  M  N        (BOHR,RAD)       (ANG,DEG)
 ----------------------------------------------------------------
   1 STRETCH   2  1                     2.4874452       1.3162994
   2 STRETCH   3  1                     2.5959192       1.3737014
   3 BEND      3  1  2                  2.0202759     115.7532811
   4 STRETCH   4  2                     2.8418153       1.5038240
   5 BEND      4  2  1                  1.7282558      99.0217613
   6 TORSION   4  2  1  3               0.1828770      10.4780798
   7 STRETCH   5  4                     2.4976125       1.3216797
   8 BEND      5  4  2                  1.8965909     108.6666527
   9 TORSION   5  4  2  1              -0.1543680      -8.8446339
  10 STRETCH   6  4                     2.8324067       1.4988452
  11 BEND      6  4  2                  2.4140982     138.3176393
  12 TORSION   6  4  2  1               2.8324824     162.2892873
  13 STRETCH   7  6                     2.0488343       1.0841965
  14 BEND      7  6  4                  1.9042960     109.1081254
  15 TORSION   7  6  4  2              -1.1163056     -63.9596019
  16 STRETCH   8  6                     2.0606844       1.0904673
  17 BEND      8  6  4                  1.8483682     105.9036987
  18 TORSION   8  6  4  2               3.1020589     177.7348803
  19 STRETCH   9  6                     2.0383977       1.0786737
  20 BEND      9  6  4                  1.9655397     112.6171271
  21 TORSION   9  6  4  2               1.0281367      58.9078943
  22 STRETCH  10  3                     2.7868441       1.4747345
  23 BEND     10  3  1                  2.2500769     128.9199094
  24 TORSION  10  3  1  2               3.0462942     174.5398005
  25 STRETCH  11  5                     2.0333144       1.0759837
  26 BEND     11  5  4                  2.1817563     125.0054293
  27 TORSION  11  5  4  2              -3.0913532    -177.1214906
  28 STRETCH  12  1                     2.0383775       1.0786630
  29 BEND     12  1  2                  2.1759577     124.6731924
  30 TORSION  12  1  2  3               2.9669705     169.9948872
  31 STRETCH  13  2                     2.0186414       1.0682191
  32 BEND     13  2  1                  2.2769526     130.4597756
  33 TORSION  13  2  1  3              -3.1195131    -178.7349347
  34 STRETCH  14 10                     2.8745676       1.5211558
  35 BEND     14 10  3                  1.9725786     113.0204306
  36 TORSION  14 10  3  1              -0.0753996      -4.3200777
  37 STRETCH  15 10                     2.0641515       1.0923020
  38 BEND     15 10  3                  1.8730595     107.3184032
  39 TORSION  15 10  3  1              -2.1984598    -125.9624683
  40 STRETCH  16 10                     2.0648881       1.0926918
  41 BEND     16 10  3                  1.8822886     107.8471942
  42 TORSION  16 10  3  1               2.0562618     117.8151218
  43 STRETCH  17 14                     2.0626525       1.0915088
  44 BEND     17 14 10                  1.9479607     111.6099268
  45 TORSION  17 14 10  3              -1.0583544     -60.6392398
  46 STRETCH  18 14                     2.0624742       1.0914144
  47 BEND     18 14 10                  1.8954685     108.6023477
  48 TORSION  18 14 10  3              -3.1335293    -179.5380036
  49 STRETCH  19 14                     2.0629241       1.0916525
  50 BEND     19 14 10                  1.9498263     111.7168200
  51 TORSION  19 14 10  3               1.0762808      61.6663495
  52 STRETCH  20  1                     7.3699314       3.9000000
  53 BEND     20  1  2                  0.0872665       5.0000000
  54 TORSION  20  1  2  3               1.5707963      90.0000000
  55 STRETCH  21 20                     2.6791365       1.4177381
  56 BEND     21 20  1                  1.2431251      71.2258228
  57 TORSION  21 20  1  2              -0.0768543      -4.4034263
  58 STRETCH  22 20                     2.6674741       1.4115666
  59 BEND     22 20 21                  2.1096174     120.8721707
  60 TORSION  22 20 21  2               0.7890382      45.2085604
  61 STRETCH  23 20                     2.6482616       1.4013998
  62 BEND     23 20 21                  1.8506120     106.0322574
  63 TORSION  23 20 21 22               2.1031070     120.4991549
  64 STRETCH  24 20                     2.6899730       1.4234725
  65 BEND     24 20 21                  1.8432225     105.6088721
  66 TORSION  24 20 21 22              -2.1114572    -120.9775871
1   ATOM  0
                                        -------------------
   COORD  0                             NUCLEAR COORDINATES
                                        -------------------
     VIB  0

                       ATOM             X              Y              Z

                 1  C                3.043705      -1.600420      -0.622573
                 2  C                0.590489      -1.193013      -0.566565
                 3  N                4.536199       0.403237       0.082140
                 4  N                0.615011       1.622208      -0.179469
                 5  C                2.959913       2.344570       0.287111
                 6  C               -1.160947       3.811168      -0.456882
                 7  H               -1.661845       4.022267      -2.432296
                 8  H               -0.118675       5.468820       0.185205
                 9  H               -2.839503       3.607941       0.681632
                10  C                7.301390       0.494108       0.416747
                11  H                3.529718       4.247558       0.721077
                12  H                3.910230      -3.426311      -0.887599
                13  H               -0.952058      -2.426262      -0.984365
                14  C                8.559473      -2.068285       0.078356
                15  H                7.667227       1.221033       2.313709
                16  H                8.059538       1.848081      -0.945505
                17  H                7.865734      -3.442405       1.451329
                18  H               10.589448      -1.848079       0.369061
                19  H                8.271219      -2.815043      -1.822938
                20  B               -4.216465      -0.598098       0.152779
                21  F               -3.477026       0.288177      -2.264972
                22  F               -2.792288       0.004958       2.326131
                23  F               -6.644985       0.369898       0.575349
                24  F               -4.240224      -3.281331      -0.036043

          ********************
          1 ELECTRON INTEGRALS
          ********************
 ...... END OF ONE-ELECTRON INTEGRALS ......
 CPU     0: STEP CPU TIME=     0.02 TOTAL CPU TIME=          0.1 (      0.0 MIN)
 TOTAL WALL CLOCK TIME=          0.1 SECONDS, CPU UTILIZATION IS    50.00%

          -------------
          GUESS OPTIONS
          -------------
          GUESS =HUCKEL            NORB  =       0          NORDER=       0
          MIX   =       F          PRTMO =       F          PUNMO =       F
          TOLZ  = 1.0E-08          TOLE  = 1.0E-05
          SYMDEN=       F          PURIFY=       F

 INITIAL GUESS ORBITALS GENERATED BY HUCKEL   ROUTINE.
 HUCKEL GUESS REQUIRES   1056904 WORDS.

                    * * * * * WARNING * * * * *
 POSSIBLE LINEAR DEPENDENCE PROBLEMS DETECTED, INPUT QMTTOL= 1.0E-08,
 WITH     1 OVERLAP EIGENVALUES LYING BETWEEN 1.0E-05 AND QMTTOL.
 IF YOU EXPERIENCE SCF CONVERGENCE DIFFICULTIES WITH THE DENSITY ALMOST BUT
 NOT QUITE CONVERGED, YOU MAY NEED TO LOOSEN -QMTTOL- BY A FACTOR 5 TO 10.

 SYMMETRIES FOR INITIAL GUESS ORBITALS FOLLOW.   BOTH SET(S).
    51 ORBITALS ARE OCCUPIED (   13 CORE ORBITALS).
    14=A       15=A       16=A       17=A       18=A       19=A       20=A   
    21=A       22=A       23=A       24=A       25=A       26=A       27=A   
    28=A       29=A       30=A       31=A       32=A       33=A       34=A   
    35=A       36=A       37=A       38=A       39=A       40=A       41=A   
    42=A       43=A       44=A       45=A       46=A       47=A       48=A   
    49=A       50=A       51=A       52=A       53=A       54=A       55=A   
    56=A       57=A       58=A       59=A       60=A       61=A   
 ...... END OF INITIAL ORBITAL SELECTION ......
 CPU     0: STEP CPU TIME=     0.44 TOTAL CPU TIME=          0.5 (      0.0 MIN)
 TOTAL WALL CLOCK TIME=          0.8 SECONDS, CPU UTILIZATION IS    60.00%

                    ----------------------
                    AO INTEGRAL TECHNOLOGY
                    ----------------------
     S,P,L SHELL ROTATED AXIS INTEGRALS, REPROGRAMMED BY
        KAZUYA ISHIMURA (IMS) AND JOSE SIERRA (SYNSTAR).
     S,P,D,L SHELL ROTATED AXIS INTEGRALS PROGRAMMED BY
        KAZUYA ISHIMURA (INSTITUTE FOR MOLECULAR SCIENCE).
     S,P,D,F,G SHELL TO TOTAL QUARTET ANGULAR MOMENTUM SUM 5,
        ERIC PROGRAM BY GRAHAM FLETCHER (ELORET AND NASA ADVANCED
        SUPERCOMPUTING DIVISION, AMES RESEARCH CENTER).
     S,P,D,F,G,L SHELL GENERAL RYS QUADRATURE PROGRAMMED BY
        MICHEL DUPUIS (PACIFIC NORTHWEST NATIONAL LABORATORY).

          --------------------
          2 ELECTRON INTEGRALS
          --------------------

 DIRECT SCF METHOD SKIPS INTEGRAL STORAGE ON DISK.
 DIRECT TRANSFORMATION SKIPS AO INTEGRAL STORAGE ON DISK.
  ...... END OF TWO-ELECTRON INTEGRALS .....
 CPU     0: STEP CPU TIME=     0.02 TOTAL CPU TIME=          0.5 (      0.0 MIN)
 TOTAL WALL CLOCK TIME=          0.9 SECONDS, CPU UTILIZATION IS    60.92%

          --------------------------
                 RHF SCF CALCULATION
          --------------------------

     NUCLEAR ENERGY =       890.7170713702
     MAXIT =  200     NPUNCH=    2
     EXTRAP=T  DAMP=T  SHIFT=F  RSTRCT=F  DIIS=T  DEM=F  SOSCF=F
     DENSITY MATRIX CONV=  2.00E-05
     MEMORY REQUIRED FOR RHF ITERS=   1078754 WORDS.

 DIRECT SCF CALCULATION, SCHWRZ=T   FDIFF=T,  DIRTHR=  0.00E+00 NITDIR=10
 SCHWARZ INEQUALITY OVERHEAD:     62988 INTEGRALS, T=        0.01

                                                                                                                   NONZERO     BLOCKS
 ITER EX DEM     TOTAL ENERGY        E CHANGE  DENSITY CHANGE    DIIS ERROR      VIR. SHIFT       DAMPING        INTEGRALS    SKIPPED
   1  0  0     -762.7339107131  -762.7339107131  44.462017508   1.387788937     0.000000000     1.000000000     1348233731   16699348
          * * *   INITIATING DIIS PROCEDURE   * * *
   2  1  0     -765.1276561477    -2.3937454346   1.768521737   0.062612219     0.000000000     1.000000000     1348907933   16887181
   3  2  0     -765.2498903271    -0.1222341794   1.164625421   0.029874412     0.000000000     1.000000000     1338907526   17666132
   4  3  0     -765.2888302316    -0.0389399044   0.243363309   0.006589047     0.000000000     1.000000000     1320252782   18534966
   5  4  0     -765.2911702469    -0.0023400154   0.083074203   0.002338734     0.000000000     1.000000000     1294480675   19310509
   6  5  0     -765.2913257734    -0.0001555265   0.004815694   0.001372283     0.000000000     1.000000000     1257365694   20252723
   7  6  0     -765.2913523145    -0.0000265411   0.001906844   0.000375328     0.000000000     1.000000000     1215328904   21166716
   8  7  0     -765.2913580473    -0.0000057328   0.009393566   0.000299913     0.000000000     1.000000000     1177068707   21932127
   9  8  0     -765.2913596481    -0.0000016007   0.002079184   0.000078073     0.000000000     1.000000000     1149723710   22474540
  10  9  0     -765.2913598144    -0.0000001664   0.000457928   0.000032787     0.000000000     1.000000000     1083468704   23772439
  11 10  0     -765.2913598435    -0.0000000291   0.000071708   0.000005263     0.000000000     1.000000000     1056730371   24214238
  12 11  0     -765.2913598453    -0.0000000018   0.000060730   0.000002838     0.000000000     1.000000000      950780219   26092131
  13 12  0     -765.2913598463    -0.0000000009   0.000052237   0.000001624     0.000000000     1.000000000      874734089   27415171
  14 13  0     -765.2913598465    -0.0000000003   0.000007754   0.000000585     0.000000000     1.000000000      832131358   28122969
  15 14  0     -765.2913598509    -0.0000000044   0.000046207   0.000000222     0.000000000     1.000000000      738514504   29746316
  16 15  0     -765.2913598523    -0.0000000014   0.000009401   0.000000055     0.000000000     1.000000000      741703454   29643873
  17 16  0     -765.2913598587    -0.0000000064   0.000033265   0.000000036     0.000000000     1.000000000      681954883   30524276

          --------------
          DIIS CONVERGED
          --------------
     TIME TO FORM FOCK OPERATORS=      78.1 SECONDS (       4.6 SEC/ITER)
     FOCK TIME ON FIRST ITERATION=       6.0, LAST ITERATION=       2.7
     TIME TO SOLVE SCF EQUATIONS=       1.9 SECONDS (       0.1 SEC/ITER)

 FINAL RHF ENERGY IS     -765.2913598587 AFTER  17 ITERATIONS

          ------------
          EIGENVECTORS
          ------------

                      1          2          3          4          5
                  -26.2180   -26.2163   -26.1982   -26.1841   -15.6820
                     A          A          A          A          A   
    1  C  1  S    0.000000   0.000000  -0.000000  -0.000000   0.000017
    2  C  1  S   -0.000001  -0.000001  -0.000000   0.000001  -0.000037
    3  C  1  X   -0.000001   0.000000  -0.000001  -0.000001   0.000018
    4  C  1  Y   -0.000001   0.000000  -0.000001   0.000001   0.000044
    5  C  1  Z   -0.000000  -0.000001  -0.000000   0.000001   0.000014
    6  C  1  S   -0.000012  -0.000009   0.000002   0.000017   0.000145
    7  C  1  X    0.000003  -0.000001   0.000001   0.000002   0.000293
    8  C  1  Y    0.000006  -0.000004   0.000004  -0.000005   0.000265
    9  C  1  Z    0.000004   0.000001   0.000001  -0.000005   0.000081
   10  C  1  S    0.000372   0.000071   0.000043  -0.000556  -0.000012
   11  C  1  X   -0.000142  -0.000054  -0.000058   0.000262  -0.000277
   12  C  1  Y    0.000144  -0.000026  -0.000062  -0.000089  -0.000058
   13  C  1  Z    0.000015  -0.000000  -0.000017   0.000002  -0.000042
   14  C  1  S   -0.009370  -0.006042  -0.018875  -0.000463  -0.002717
   15  C  1  X    0.002412   0.001829   0.005228   0.000114   0.000741
   16  C  1  Y   -0.000356  -0.000156  -0.001168  -0.000011  -0.000435
   17  C  1  Z   -0.000037   0.000160   0.000046   0.000012  -0.000090
   18  C  1 XX   -0.000003   0.000000  -0.000001   0.000003  -0.000080
   19  C  1 YY   -0.000004  -0.000003   0.000002   0.000002   0.000029
   20  C  1 ZZ   -0.000007  -0.000005  -0.000000   0.000007  -0.000006
   21  C  1 XY    0.000000  -0.000002  -0.000002  -0.000000   0.000219
   22  C  1 XZ    0.000002  -0.000003  -0.000001  -0.000000   0.000055
   23  C  1 YZ    0.000002   0.000001  -0.000001  -0.000002   0.000038
   24  C  2  S    0.000001   0.000001   0.000001  -0.000000  -0.000001
   25  C  2  S   -0.000001  -0.000001  -0.000001   0.000000   0.000005
   26  C  2  X   -0.000003  -0.000001  -0.000001   0.000006  -0.000018
   27  C  2  Y   -0.000001   0.000001   0.000003  -0.000000  -0.000005
   28  C  2  Z    0.000001   0.000001   0.000000  -0.000001  -0.000000
   29  C  2  S    0.000003  -0.000004  -0.000011  -0.000003   0.000071
   30  C  2  X    0.000023   0.000011   0.000007  -0.000030   0.000165
   31  C  2  Y    0.000006  -0.000005  -0.000015  -0.000000   0.000026
   32  C  2  Z   -0.000001  -0.000009  -0.000003   0.000006   0.000003
   33  C  2  S   -0.000159   0.000039   0.000113   0.000346  -0.000208
   34  C  2  X   -0.000249  -0.000015  -0.000155   0.000438  -0.000178
   35  C  2  Y   -0.000095   0.000087   0.000053  -0.000058   0.000067
   36  C  2  Z    0.000019   0.000010   0.000006  -0.000042   0.000029
   37  C  2  S    0.008714   0.005617   0.018018   0.000488   0.002944
   38  C  2  X    0.003444   0.002337   0.006615   0.000048   0.000823
   39  C  2  Y   -0.000644  -0.000527  -0.000783  -0.000112   0.000167
   40  C  2  Z   -0.000133  -0.000285  -0.000355  -0.000065   0.000055
   41  C  2 XX   -0.000011  -0.000010  -0.000001   0.000007   0.000105
   42  C  2 YY   -0.000007  -0.000002  -0.000000  -0.000003  -0.000002
   43  C  2 ZZ   -0.000002  -0.000007  -0.000006  -0.000000   0.000014
   44  C  2 XY   -0.000002   0.000001   0.000006   0.000001  -0.000002
   45  C  2 XZ   -0.000004   0.000001   0.000003   0.000003  -0.000003
   46  C  2 YZ    0.000001  -0.000002   0.000005  -0.000002  -0.000008
   47  N  3  S   -0.000000   0.000000   0.000000  -0.000000   0.557638
   48  N  3  S    0.000001  -0.000000  -0.000000   0.000000   0.467864
   49  N  3  X    0.000001  -0.000000  -0.000000  -0.000000  -0.000174
   50  N  3  Y   -0.000000   0.000000  -0.000000   0.000000   0.000130
   51  N  3  Z    0.000000   0.000000  -0.000000  -0.000000  -0.000066
   52  N  3  S    0.000010  -0.000002  -0.000001   0.000000   0.005866
   53  N  3  X   -0.000006   0.000002   0.000001   0.000003   0.000042
   54  N  3  Y    0.000001  -0.000001   0.000002  -0.000002  -0.000057
   55  N  3  Z   -0.000002   0.000000   0.000001   0.000001   0.000025
   56  N  3  S   -0.000135   0.000022   0.000007   0.000025   0.000392
   57  N  3  X    0.000112  -0.000027  -0.000013  -0.000084   0.000067
   58  N  3  Y   -0.000008  -0.000004  -0.000029   0.000020   0.000001
   59  N  3  Z    0.000017  -0.000006  -0.000009  -0.000009  -0.000009
   60  N  3  S   -0.000430   0.000077   0.000389   0.000364   0.001304
   61  N  3  X    0.000389  -0.000219  -0.000199  -0.000444   0.000050
   62  N  3  Y   -0.000114  -0.000004  -0.000024   0.000114  -0.000070
   63  N  3  Z    0.000008  -0.000005  -0.000084  -0.000010  -0.000007
   64  N  3 XX    0.000003  -0.000001  -0.000000   0.000001  -0.000622
   65  N  3 YY    0.000001   0.000000  -0.000000   0.000002  -0.000667
   66  N  3 ZZ    0.000005  -0.000002  -0.000001   0.000001  -0.000627
   67  N  3 XY    0.000001   0.000000   0.000001  -0.000000  -0.000005
   68  N  3 XZ   -0.000001   0.000000  -0.000000   0.000000  -0.000002
   69  N  3 YZ   -0.000001   0.000000   0.000000   0.000000  -0.000027
   70  N  4  S    0.000001   0.000001   0.000000   0.000000  -0.002376
   71  N  4  S   -0.000001  -0.000002  -0.000001  -0.000000  -0.001981
   72  N  4  X   -0.000001  -0.000002  -0.000002  -0.000000  -0.000025
   73  N  4  Y   -0.000001  -0.000000  -0.000001  -0.000000   0.000001
   74  N  4  Z   -0.000001   0.000001   0.000000   0.000001  -0.000003
   75  N  4  S    0.000001  -0.000005  -0.000001   0.000000   0.000009
   76  N  4  X    0.000005   0.000012   0.000008   0.000001   0.000111
   77  N  4  Y    0.000004   0.000004   0.000003   0.000003   0.000003
   78  N  4  Z    0.000007  -0.000007  -0.000000  -0.000002   0.000019
   79  N  4  S    0.000049   0.000070  -0.000042  -0.000010  -0.000170
   80  N  4  X    0.000043  -0.000027  -0.000056  -0.000026  -0.000175
   81  N  4  Y   -0.000043   0.000042  -0.000010  -0.000018   0.000123
   82  N  4  Z   -0.000001  -0.000030  -0.000003   0.000011  -0.000017
   83  N  4  S    0.000158  -0.000472  -0.000127  -0.000082  -0.000028
   84  N  4  X    0.000648   0.000121  -0.000260  -0.000444  -0.000122
   85  N  4  Y    0.000076   0.000330   0.000081   0.000152   0.000127
   86  N  4  Z    0.000065  -0.000129   0.000078  -0.000055  -0.000030
   87  N  4 XX   -0.000007  -0.000010  -0.000004  -0.000002   0.000081
   88  N  4 YY   -0.000000  -0.000004  -0.000001   0.000001   0.000014
   89  N  4 ZZ   -0.000003  -0.000008  -0.000002  -0.000000   0.000030
   90  N  4 XY   -0.000001  -0.000004  -0.000002   0.000000   0.000018
   91  N  4 XZ   -0.000004   0.000002  -0.000002  -0.000000   0.000012
   92  N  4 YZ    0.000000   0.000000  -0.000000  -0.000001  -0.000004
   93  C  5  S   -0.000000  -0.000000  -0.000000  -0.000000   0.000027
   94  C  5  S    0.000000   0.000001   0.000001   0.000000  -0.000045
   95  C  5  X   -0.000001   0.000001   0.000001   0.000001   0.000034
   96  C  5  Y   -0.000000   0.000000   0.000001  -0.000001  -0.000053
   97  C  5  Z    0.000000  -0.000000  -0.000000   0.000000  -0.000007
   98  C  5  S    0.000004  -0.000000   0.000002   0.000002   0.000229
   99  C  5  X    0.000006  -0.000004  -0.000008  -0.000005   0.000300
  100  C  5  Y   -0.000002  -0.000001  -0.000006   0.000006  -0.000330
  101  C  5  Z   -0.000002  -0.000003   0.000000  -0.000000  -0.000026
  102  C  5  S    0.000004  -0.000007   0.000066  -0.000058  -0.000020
  103  C  5  X    0.000029  -0.000023  -0.000015  -0.000033  -0.000218
  104  C  5  Y   -0.000094   0.000003  -0.000015   0.000047  -0.000044
  105  C  5  Z   -0.000001   0.000041  -0.000019  -0.000002  -0.000030
  106  C  5  S   -0.000166  -0.000102  -0.000056   0.000008  -0.000179
  107  C  5  X    0.000100   0.000019   0.000255  -0.000224   0.000117
  108  C  5  Y   -0.000199   0.000021   0.000048  -0.000003   0.000281
  109  C  5  Z   -0.000019   0.000067   0.000005  -0.000045   0.000062
  110  C  5 XX    0.000003   0.000004   0.000005   0.000003  -0.000024
  111  C  5 YY    0.000002   0.000001   0.000002  -0.000001   0.000018
  112  C  5 ZZ    0.000001   0.000001   0.000001   0.000002  -0.000027
  113  C  5 XY   -0.000004   0.000002   0.000001   0.000000  -0.000259
  114  C  5 XZ   -0.000002  -0.000004   0.000003   0.000002  -0.000057
  115  C  5 YZ    0.000000  -0.000001   0.000001  -0.000000  -0.000025
  116  C  6  S    0.000001   0.000001   0.000000   0.000000  -0.000001
  117  C  6  S   -0.000000  -0.000002  -0.000000  -0.000001   0.000001
  118  C  6  X    0.000002  -0.000002   0.000001  -0.000001  -0.000000
  119  C  6  Y    0.000000  -0.000003   0.000000  -0.000001  -0.000001
  120  C  6  Z   -0.000001   0.000002   0.000000   0.000002  -0.000000
  121  C  6  S   -0.000009   0.000005  -0.000007  -0.000002   0.000015
  122  C  6  X   -0.000008   0.000014  -0.000001   0.000006   0.000010
  123  C  6  Y    0.000006   0.000009   0.000002   0.000005   0.000005
  124  C  6  Z    0.000014  -0.000012  -0.000002  -0.000009   0.000002
  125  C  6  S    0.000154  -0.000011   0.000023  -0.000029  -0.000234
  126  C  6  X    0.000048  -0.000048  -0.000005  -0.000041  -0.000067
  127  C  6  Y   -0.000036   0.000046  -0.000018  -0.000014   0.000076
  128  C  6  Z    0.000018   0.000020   0.000014   0.000000  -0.000021
  129  C  6  S   -0.000089   0.000191   0.000288  -0.000662  -0.000138
  130  C  6  X    0.000156  -0.000105  -0.000019   0.000015   0.000011
  131  C  6  Y    0.000200  -0.000100  -0.000044   0.000240  -0.000005
  132  C  6  Z    0.000138   0.000010   0.000027   0.000084   0.000005
  133  C  6 XX    0.000001  -0.000006   0.000001   0.000001   0.000006
  134  C  6 YY   -0.000007  -0.000009  -0.000001  -0.000006   0.000006
  135  C  6 ZZ   -0.000005  -0.000006  -0.000003  -0.000000   0.000006
  136  C  6 XY   -0.000003  -0.000001   0.000002   0.000000   0.000001
  137  C  6 XZ   -0.000004   0.000004  -0.000001   0.000000   0.000003
  138  C  6 YZ   -0.000002   0.000005  -0.000000  -0.000001   0.000001
  139  H  7  S    0.000002  -0.000003   0.000000   0.000003  -0.000002
  140  H  7  S   -0.000042   0.000023   0.000003  -0.000029   0.000021
  141  H  7  S    0.000138  -0.000034   0.000039   0.000081  -0.000023
  142  H  7  S    0.000171  -0.000029  -0.000059   0.000182   0.000037
  143  H  7  X    0.000007   0.000004  -0.000002  -0.000001   0.000001
  144  H  7  Y    0.000011  -0.000002  -0.000002   0.000001  -0.000002
  145  H  7  Z    0.000002   0.000002   0.000000  -0.000002   0.000001
  146  H  8  S    0.000000  -0.000002  -0.000000  -0.000000   0.000000
  147  H  8  S   -0.000005   0.000009   0.000000   0.000008   0.000016
  148  H  8  S   -0.000046  -0.000025  -0.000028  -0.000015  -0.000024
  149  H  8  S   -0.000267   0.000115   0.000064  -0.000245   0.000036
  150  H  8  X   -0.000000  -0.000000   0.000001  -0.000000  -0.000002
  151  H  8  Y    0.000001  -0.000004   0.000001  -0.000000   0.000003
  152  H  8  Z   -0.000001   0.000002  -0.000001  -0.000001   0.000001
  153  H  9  S    0.000006  -0.000000  -0.000002   0.000002  -0.000003
  154  H  9  S   -0.000053  -0.000006   0.000010  -0.000006   0.000032
  155  H  9  S    0.000228  -0.000104  -0.000047   0.000001  -0.000016
  156  H  9  S    0.000017  -0.000150  -0.000184   0.000169   0.000035
  157  H  9  X   -0.000009   0.000006  -0.000000   0.000003   0.000006
  158  H  9  Y    0.000004   0.000008  -0.000002   0.000001  -0.000003
  159  H  9  Z    0.000012  -0.000011   0.000000   0.000004  -0.000002
  160  C 10  S   -0.000000   0.000000   0.000000   0.000000   0.000005
  161  C 10  S    0.000000  -0.000000  -0.000000  -0.000000  -0.000012
  162  C 10  X   -0.000002   0.000000   0.000000   0.000001  -0.000031
  163  C 10  Y    0.000000  -0.000000  -0.000000   0.000000  -0.000005
  164  C 10  Z    0.000000  -0.000000   0.000000  -0.000000  -0.000004
  165  C 10  S    0.000005  -0.000002  -0.000001  -0.000006   0.000129
  166  C 10  X    0.000009  -0.000001  -0.000001  -0.000005  -0.000245
  167  C 10  Y   -0.000001   0.000001  -0.000000  -0.000001  -0.000021
  168  C 10  Z   -0.000001   0.000001   0.000000   0.000000  -0.000036
  169  C 10  S   -0.000122   0.000035   0.000020   0.000136  -0.000475
  170  C 10  X    0.000007  -0.000021  -0.000014  -0.000035   0.000116
  171  C 10  Y    0.000021   0.000018   0.000011  -0.000014   0.000073
  172  C 10  Z    0.000014  -0.000022   0.000022  -0.000007   0.000023
  173  C 10  S   -0.000425  -0.000100   0.000552   0.000397  -0.000455
  174  C 10  X    0.000035   0.000011   0.000081  -0.000072   0.000045
  175  C 10  Y    0.000076   0.000050  -0.000232  -0.000000   0.000011
  176  C 10  Z    0.000089  -0.000042   0.000004  -0.000018   0.000016
  177  C 10 XX    0.000001  -0.000000  -0.000000  -0.000001   0.000159
  178  C 10 YY    0.000001  -0.000001  -0.000001  -0.000002  -0.000061
  179  C 10 ZZ    0.000002  -0.000002  -0.000000  -0.000001  -0.000042
  180  C 10 XY    0.000000   0.000001  -0.000001   0.000001   0.000009
  181  C 10 XZ    0.000001  -0.000001   0.000001  -0.000000   0.000030
  182  C 10 YZ   -0.000000  -0.000001   0.000002   0.000000  -0.000005
  183  H 11  S   -0.000001   0.000000  -0.000001   0.000001   0.000015
  184  H 11  S    0.000019  -0.000002   0.000004  -0.000008   0.000172
  185  H 11  S    0.000023  -0.000038  -0.000003   0.000005  -0.000097
  186  H 11  S    0.000188  -0.000037  -0.000088   0.000159  -0.000225
  187  H 11  X   -0.000001   0.000002  -0.000000   0.000002   0.000013
  188  H 11  Y   -0.000002  -0.000000  -0.000001  -0.000000  -0.000087
  189  H 11  Z   -0.000001  -0.000002   0.000001   0.000000  -0.000015
  190  H 12  S   -0.000001   0.000001   0.000001   0.000002   0.000014
  191  H 12  S    0.000017  -0.000013  -0.000013  -0.000012   0.000141
  192  H 12  S    0.000064  -0.000019  -0.000029  -0.000017  -0.000126
  193  H 12  S   -0.000111  -0.000006  -0.000274   0.000021  -0.000161
  194  H 12  X    0.000002   0.000003   0.000003  -0.000004  -0.000004
  195  H 12  Y    0.000002  -0.000001  -0.000000  -0.000002   0.000073
  196  H 12  Z    0.000001  -0.000002  -0.000000  -0.000001   0.000013
  197  H 13  S   -0.000000  -0.000006  -0.000007   0.000003   0.000002
  198  H 13  S   -0.000026   0.000045  -0.000027  -0.000009   0.000030
  199  H 13  S   -0.000117   0.000215  -0.000127  -0.000111  -0.000014
  200  H 13  S   -0.000018  -0.000061   0.000271  -0.000197   0.000118
  201  H 13  X    0.000010  -0.000003  -0.000014   0.000003   0.000017
  202  H 13  Y   -0.000003   0.000003  -0.000007  -0.000007  -0.000002
  203  H 13  Z    0.000009  -0.000001  -0.000003  -0.000006  -0.000001
  204  C 14  S    0.000000   0.000000   0.000000  -0.000000  -0.000001
  205  C 14  S   -0.000000  -0.000001  -0.000001   0.000000   0.000005
  206  C 14  X    0.000000   0.000000   0.000001   0.000000   0.000011
  207  C 14  Y   -0.000001   0.000000   0.000000   0.000000  -0.000011
  208  C 14  Z   -0.000001   0.000001  -0.000000   0.000000  -0.000001
  209  C 14  S   -0.000002  -0.000007  -0.000003   0.000003  -0.000014
  210  C 14  X   -0.000001   0.000000  -0.000003   0.000000  -0.000031
  211  C 14  Y    0.000002  -0.000000  -0.000000  -0.000001   0.000044
  212  C 14  Z    0.000003  -0.000003   0.000000  -0.000001   0.000005
  213  C 14  S    0.000032   0.000071   0.000046  -0.000022   0.000111
  214  C 14  X   -0.000001  -0.000005   0.000023   0.000025  -0.000008
  215  C 14  Y    0.000003   0.000010   0.000006   0.000004   0.000036
  216  C 14  Z   -0.000010   0.000020  -0.000012   0.000005   0.000007
  217  C 14  S    0.000034  -0.000115  -0.001218  -0.000045   0.000051
  218  C 14  X    0.000025   0.000140   0.000445  -0.000020   0.000090
  219  C 14  Y    0.000044   0.000004  -0.000105  -0.000004   0.000029
  220  C 14  Z   -0.000012   0.000085   0.000022  -0.000007   0.000003
  221  C 14 XX    0.000000  -0.000003  -0.000001   0.000001   0.000007
  222  C 14 YY   -0.000000  -0.000004  -0.000002   0.000001   0.000024
  223  C 14 ZZ   -0.000001  -0.000005  -0.000002  -0.000000   0.000006
  224  C 14 XY   -0.000000  -0.000000   0.000000   0.000000  -0.000020
  225  C 14 XZ    0.000000  -0.000000   0.000001   0.000000  -0.000004
  226  C 14 YZ   -0.000000   0.000001  -0.000000   0.000000   0.000001
  227  H 15  S    0.000000  -0.000000   0.000001   0.000001   0.000001
  228  H 15  S    0.000003   0.000004  -0.000011  -0.000009   0.000071
  229  H 15  S   -0.000024   0.000035   0.000004   0.000021  -0.000036
  230  H 15  S   -0.000064   0.000005   0.000001  -0.000027   0.000076
  231  H 15  X    0.000001   0.000001   0.000000   0.000001  -0.000001
  232  H 15  Y   -0.000000  -0.000002   0.000000   0.000000  -0.000009
  233  H 15  Z    0.000000   0.000000   0.000001   0.000001  -0.000030
  234  H 16  S    0.000000   0.000001  -0.000001   0.000000   0.000001
  235  H 16  S    0.000001  -0.000013   0.000009  -0.000007   0.000062
  236  H 16  S    0.000011   0.000030  -0.000016   0.000018  -0.000039
  237  H 16  S    0.000027  -0.000005   0.000040  -0.000053   0.000086
  238  H 16  X    0.000000   0.000000   0.000001   0.000001  -0.000004
  239  H 16  Y   -0.000000   0.000001  -0.000002   0.000000  -0.000017
  240  H 16  Z   -0.000000  -0.000001   0.000000  -0.000001   0.000022
  241  H 17  S    0.000001  -0.000000   0.000001  -0.000001  -0.000003
  242  H 17  S   -0.000006   0.000001  -0.000004   0.000013  -0.000001
  243  H 17  S   -0.000018  -0.000039   0.000034   0.000009  -0.000009
  244  H 17  S    0.000044  -0.000045   0.000086  -0.000010   0.000053
  245  H 17  X   -0.000000   0.000001  -0.000000  -0.000001  -0.000001
  246  H 17  Y   -0.000000  -0.000000   0.000001   0.000001   0.000000
  247  H 17  Z    0.000001   0.000000   0.000001  -0.000001  -0.000005
  248  H 18  S    0.000000   0.000000   0.000001   0.000001   0.000005
  249  H 18  S   -0.000005  -0.000002  -0.000007  -0.000005  -0.000001
  250  H 18  S    0.000004  -0.000023  -0.000025  -0.000006  -0.000023
  251  H 18  S   -0.000009  -0.000093  -0.000199   0.000045  -0.000109
  252  H 18  X    0.000000   0.000001   0.000001   0.000001  -0.000005
  253  H 18  Y   -0.000000   0.000000   0.000000   0.000000  -0.000001
  254  H 18  Z    0.000000  -0.000001   0.000001   0.000000  -0.000001
  255  H 19  S   -0.000000   0.000001   0.000001  -0.000001  -0.000003
  256  H 19  S    0.000000  -0.000006  -0.000007   0.000012   0.000004
  257  H 19  S   -0.000061   0.000024  -0.000017   0.000008  -0.000022
  258  H 19  S   -0.000004   0.000062   0.000046  -0.000020   0.000009
  259  H 19  X    0.000001   0.000000  -0.000001  -0.000001  -0.000003
  260  H 19  Y   -0.000000   0.000000  -0.000000   0.000000  -0.000001
  261  H 19  Z   -0.000000  -0.000000  -0.000000   0.000001   0.000004
  262  B 20  S   -0.000007  -0.000007  -0.000009  -0.000007  -0.000000
  263  B 20  S   -0.000022  -0.000022  -0.000015  -0.000023   0.000001
  264  B 20  X    0.000011   0.000014  -0.000003  -0.000016   0.000000
  265  B 20  Y    0.000009   0.000011  -0.000021   0.000004   0.000001
  266  B 20  Z   -0.000019   0.000017  -0.000000   0.000003   0.000001
  267  B 20  S    0.000108   0.000113   0.000134   0.000045   0.000022
  268  B 20  X    0.000027   0.000081   0.000019  -0.000184   0.000005
  269  B 20  Y    0.000042   0.000007  -0.000149   0.000076  -0.000000
  270  B 20  Z   -0.000132   0.000121  -0.000015   0.000031  -0.000005
  271  B 20  S   -0.001346  -0.001224  -0.001181   0.000012  -0.000257
  272  B 20  X   -0.000262  -0.000625   0.000038   0.001110  -0.000151
  273  B 20  Y   -0.000141   0.000100   0.000697  -0.000442   0.000077
  274  B 20  Z    0.000193  -0.000076   0.000126  -0.000120   0.000075
  275  B 20  S    0.000520   0.000406   0.000669  -0.000067   0.000008
  276  B 20  X    0.000160   0.000140   0.000195   0.000042   0.000010
  277  B 20  Y    0.000002  -0.000010   0.000053  -0.000078  -0.000010
  278  B 20  Z   -0.000040  -0.000021  -0.000034  -0.000015  -0.000001
  279  B 20 XX   -0.000028   0.000013  -0.000017   0.000076  -0.000001
  280  B 20 YY   -0.000018  -0.000033   0.000113  -0.000023   0.000009
  281  B 20 ZZ    0.000061   0.000040  -0.000018  -0.000044   0.000005
  282  B 20 XY    0.000019   0.000018   0.000003  -0.000057   0.000001
  283  B 20 XZ   -0.000047   0.000071  -0.000000  -0.000024  -0.000000
  284  B 20 YZ   -0.000048   0.000032   0.000011   0.000010   0.000001
  285  F 21  S    0.547659   0.001408   0.000218   0.000131   0.000000
  286  F 21  S    0.473307   0.001219   0.000189   0.000114  -0.000000
  287  F 21  X   -0.000109  -0.000002   0.000000   0.000003  -0.000000
  288  F 21  Y   -0.000242  -0.000001   0.000004  -0.000000   0.000000
  289  F 21  Z    0.000804  -0.000000   0.000000  -0.000002   0.000000
  290  F 21  S    0.006773   0.000016   0.000001  -0.000000  -0.000000
  291  F 21  X    0.000054   0.000004   0.000001   0.000001   0.000001
  292  F 21  Y    0.000090   0.000002  -0.000001  -0.000002  -0.000002
  293  F 21  Z   -0.000285  -0.000004  -0.000008   0.000000  -0.000000
  294  F 21  S   -0.000767  -0.000014   0.000012   0.000002   0.000004
  295  F 21  X   -0.000054  -0.000022   0.000002   0.000016  -0.000002
[...]
 24   F            X  0.00091881  0.00000232 -0.00001499 -0.00000683  0.00000189
                   Y  0.00100489  0.00000594 -0.00000815 -0.00008611  0.00000001
                   Z  0.00001350 -0.00000041  0.00000253  0.00000188  0.00000202

 TRANS. SAYVETZ    X  0.00005101  0.00000132  0.00001075 -0.00001796  0.00000191
                   Y -0.00002326 -0.00000103 -0.00000580  0.00001723  0.00000308
                   Z  0.00012634  0.00001270  0.00001181 -0.00000205 -0.00000039
               TOTAL  0.00013822  0.00001281  0.00001699  0.00002497  0.00000364

   ROT. SAYVETZ    X  0.00089143 -0.00011467 -0.00033497  0.00081150  0.00268684
                   Y -0.02604479 -0.00009871 -0.00011528  0.00013620 -0.00242170
                   Z -0.22616554 -0.00075655  0.00054671 -0.00155501 -0.00016832
               TOTAL  0.22766198  0.00077153  0.00065145  0.00175930  0.00362106

                           66          67          68          69          70
       FREQUENCY:      3188.21     3191.23     3236.83     3304.40     3307.51  
        SYMMETRY:         A           A           A           A           A   
    REDUCED MASS:      1.10184     1.10474     1.09648     1.09549     1.10383
    IR INTENSITY:      0.23458     0.24492     0.07404     0.17793     0.06550

  1   C            X -0.00080841  0.00003918 -0.00023830  0.03890197  0.00050080
                   Y  0.00118652 -0.00007947  0.00034122 -0.07441799 -0.00108709
                   Z  0.00020102  0.00008356  0.00001522 -0.01151774 -0.00013744
  2   C            X  0.00024461 -0.00004839 -0.00045801  0.00358081 -0.00023173
                   Y  0.00005601 -0.00002203 -0.00010070  0.00768238 -0.00005409
                   Z  0.00001606  0.00001252 -0.00008192  0.00270317 -0.00012597
  3   N            X  0.00065605 -0.00017391  0.00024610  0.00087349  0.00013236
                   Y -0.00033975  0.00005579 -0.00000060  0.00137783 -0.00001098
                   Z  0.00002903  0.00008718 -0.00001961  0.00057562  0.00005431
  4   N            X -0.00005016  0.00000721 -0.00026034 -0.00014511  0.00019574
                   Y  0.00002424  0.00000232 -0.00009342  0.00092940 -0.00024094
                   Z -0.00000881 -0.00001701  0.00004308  0.00025853 -0.00019118
  5   C            X  0.00000262  0.00000169  0.00111153 -0.00171274  0.00093559
                   Y  0.00000692  0.00000028  0.00312676 -0.00214126  0.00225536
                   Z  0.00002796  0.00012769  0.00087150 -0.00057680  0.00070707
  6   C            X  0.00003537  0.00001242 -0.05355281  0.00029345 -0.05724282
                   Y -0.00007219  0.00005244 -0.02632513 -0.00002814 -0.01666818
                   Z  0.00002079  0.00002215 -0.06148722 -0.00122974  0.06593493
  7   H            X -0.00020679 -0.00007216  0.17844086  0.00190889 -0.09557666
                   Y  0.00010754  0.00007147 -0.07505355 -0.00077580  0.02449148
                   Z -0.00060903 -0.00022459  0.75353539  0.00744905 -0.34633110
  8   H            X  0.00033097 -0.00037699  0.25284038  0.00306519  0.05296909
                   Y  0.00068471 -0.00059342  0.37293142  0.00347831  0.08090993
                   Z  0.00022868 -0.00024563  0.14492785  0.00142605  0.04129486
  9   H            X -0.00023634  0.00030670  0.21191876 -0.00813448  0.71544911
                   Y -0.00001093 -0.00001577  0.02714122 -0.00172552  0.11493887
                   Z  0.00014031 -0.00015540 -0.16864162  0.00541870 -0.48093460
 10   C            X -0.00212437  0.00365469 -0.00001062  0.00020916  0.00000558
                   Y -0.00252883  0.00559129 -0.00001313 -0.00051934 -0.00001523
                   Z -0.00907783 -0.02768618 -0.00007235 -0.00015494  0.00006611
 11   H            X -0.00000442 -0.00005808 -0.01070259  0.01089394 -0.00754871
                   Y  0.00078146 -0.00056039 -0.03249068  0.03881729 -0.02550191
                   Z -0.00000871 -0.00066836 -0.00821050  0.00833044 -0.00582010
 12   H            X  0.00805344 -0.00067492  0.00175648 -0.40816090 -0.00568089
                   Y -0.01404473  0.00068256 -0.00368606  0.83778476  0.01153926
                   Z -0.00186053 -0.00004934 -0.00053213  0.12256752  0.00190807
 13   H            X  0.00016011  0.00018840  0.00227168 -0.10922835  0.00074112
                   Y  0.00010569  0.00012937  0.00230002 -0.08356424  0.00081424
                   Z -0.00002681  0.00006118  0.00066494 -0.03004973  0.00023159
 14   C            X -0.07359826  0.02757174 -0.00000859 -0.00072697 -0.00001659
                   Y -0.03258730  0.02413161  0.00000448 -0.00086490 -0.00001695
                   Z -0.03446658 -0.07633665 -0.00003333 -0.00052289  0.00000840
 15   H            X  0.01674536  0.03251150  0.00003351 -0.00149849 -0.00008437
                   Y  0.03808473  0.07431568  0.00021345 -0.00007716 -0.00012260
                   Z  0.09730116  0.18778741  0.00063641  0.00028741 -0.00032712
 16   H            X -0.00471919 -0.07239882  0.00001599 -0.00138714 -0.00006586
                   Y -0.00866872 -0.14008034  0.00004404 -0.00028998  0.00014232
                   Z  0.00818908  0.13815110 -0.00005914 -0.00017026 -0.00014901
 17   H            X  0.05877965 -0.24174822 -0.00006285  0.00392225  0.00008897
                   Y  0.13628750 -0.46990114 -0.00017523  0.00626715  0.00016831
                   Z -0.15264789  0.46553971  0.00016778 -0.00607167 -0.00016373
 18   H            X  0.76227497 -0.17351592  0.00001318  0.00839750  0.00015274
                   Y  0.08306034 -0.01582918  0.00001225  0.00219222  0.00004859
                   Z  0.10506754 -0.04220965  0.00001149  0.00143190  0.00001114
 19   H            X  0.05863770  0.08619023  0.00005077  0.00302611  0.00003020
                   Y  0.17199718  0.19770556  0.00009618  0.00505911  0.00000470
                   Z  0.45915444  0.48659818  0.00020361  0.01240659  0.00003855
 20   B            X  0.00004626 -0.00001543  0.00024781 -0.00006009  0.00056470
                   Y -0.00000626  0.00000332  0.00015686 -0.00071432 -0.00038721
                   Z -0.00001129 -0.00001442 -0.00083678 -0.00015510 -0.00062951
 21   F            X -0.00001086  0.00000231 -0.00027036  0.00014742  0.00004142
                   Y  0.00000316 -0.00000171 -0.00067854 -0.00002128 -0.00009212
                   Z  0.00000156  0.00000452  0.00015882  0.00001472 -0.00010757
 22   F            X -0.00001134  0.00000538 -0.00000380  0.00009042 -0.00014199
                   Y  0.00000204 -0.00000043 -0.00024727  0.00005955 -0.00078176
                   Z  0.00000522  0.00000443  0.00022369  0.00000944  0.00040215
 23   F            X -0.00001163  0.00000362 -0.00004991 -0.00002426 -0.00007248
                   Y  0.00000316 -0.00000113  0.00001996  0.00006208  0.00008605
                   Z  0.00000274  0.00000149  0.00008328  0.00001043  0.00009283
 24   F            X -0.00001189  0.00000255 -0.00000157  0.00005030 -0.00003001
                   Y -0.00000058 -0.00000031 -0.00006369  0.00019001  0.00003852
                   Z  0.00000320  0.00000137  0.00005973  0.00005251  0.00002539

 TRANS. SAYVETZ    X  0.00000028 -0.00000554  0.00001802  0.00001351  0.00000662
                   Y -0.00002532  0.00002536  0.00000553 -0.00002833 -0.00000389
                   Z  0.00001501 -0.00002961  0.00000215  0.00002948  0.00000757
               TOTAL  0.00002944  0.00003937  0.00001897  0.00004306  0.00001078

   ROT. SAYVETZ    X -0.00049503 -0.00095178  0.00076749 -0.00306124 -0.00081264
                   Y -0.00073429 -0.00058392  0.00127024 -0.00221917 -0.00252319
                   Z  0.00176018 -0.00039741 -0.00169700  0.00646724 -0.00175595
               TOTAL  0.00197040  0.00118524  0.00225441  0.00749140  0.00317966

                           71          72
       FREQUENCY:      3333.10     3380.02  
        SYMMETRY:         A           A   
    REDUCED MASS:      1.10019     1.11240
    IR INTENSITY:      0.26179     5.71285

  1   C            X  0.00008666  0.01461494
                   Y  0.00449943 -0.01117606
                   Z  0.00101583 -0.00161629
  2   C            X -0.00282537 -0.07352886
                   Y -0.00027666 -0.04954442
                   Z -0.00044934 -0.01740121
  3   N            X -0.00282089  0.00109901
                   Y  0.00265614  0.00102577
                   Z  0.00019493  0.00032992
  4   N            X  0.00390591  0.00130032
                   Y  0.00037944  0.00145783
                   Z  0.00061032  0.00039049
  5   C            X -0.02413967  0.00172034
                   Y -0.08133999  0.00338429
                   Z -0.01866352  0.00082337
  6   C            X -0.00368586  0.00048209
                   Y -0.00322103 -0.00009923
                   Z -0.00029835 -0.00007291
  7   H            X -0.00004365 -0.00026910
                   Y -0.00037202  0.00061156
                   Z  0.00502959 -0.00119951
  8   H            X  0.02506089 -0.00169836
                   Y  0.03637876 -0.00267418
                   Z  0.01474963 -0.00103418
  9   H            X  0.02088973 -0.00362688
                   Y  0.00476975 -0.00009881
                   Z -0.01517908  0.00248505
 10   C            X -0.00006238 -0.00026112
                   Y -0.00052198 -0.00001726
                   Z -0.00022055 -0.00000062
 11   H            X  0.25730764 -0.00615504
                   Y  0.88845781 -0.02544561
                   Z  0.20114448 -0.00544405
 12   H            X  0.01493988 -0.06075604
                   Y -0.03088596  0.11588351
                   Z -0.00496501  0.01676443
 13   H            X  0.02686353  0.73587164
                   Y  0.01972015  0.54051381
                   Z  0.00742691  0.19642982
 14   C            X  0.00027204 -0.00011926
                   Y  0.00016952 -0.00007328
                   Z  0.00005853 -0.00005450
 15   H            X  0.00169157  0.00063148
                   Y  0.00074175  0.00015801
                   Z  0.00326136  0.00064663
 16   H            X  0.00209955  0.00084230
                   Y  0.00100451  0.00057045
                   Z -0.00148193 -0.00067638
 17   H            X -0.00048835  0.00030529
                   Y -0.00050615  0.00059160
                   Z  0.00075586 -0.00066546
 18   H            X -0.00077349  0.00188349
                   Y -0.00077439  0.00026022
                   Z -0.00025061  0.00028174
 19   H            X -0.00026047  0.00019819
                   Y -0.00013466  0.00041739
                   Z -0.00090367  0.00119339
 20   B            X -0.00000148  0.00036958
                   Y  0.00018636  0.00455974
                   Z  0.00000781  0.00112971
 21   F            X -0.00003218 -0.00084301
                   Y -0.00000761  0.00009705
                   Z  0.00000195 -0.00002369
 22   F            X -0.00002958 -0.00048168
                   Y -0.00003050 -0.00020977
                   Z  0.00001592 -0.00019056
 23   F            X  0.00001114  0.00014273
                   Y -0.00001548 -0.00038434
                   Z -0.00000052 -0.00007625
 24   F            X  0.00000217 -0.00013511
                   Y -0.00004367 -0.00110254
                   Z -0.00001262 -0.00039960

 TRANS. SAYVETZ    X  0.00000622 -0.00000991
                   Y  0.00000874  0.00000016
                   Z -0.00000949 -0.00003637
               TOTAL  0.00001432  0.00003769

   ROT. SAYVETZ    X  0.00014204  0.00350397
                   Y -0.00007437 -0.00107693
                   Z -0.00070868 -0.01424655
               TOTAL  0.00072659  0.01471060

 REFERENCE ON SAYVETZ CONDITIONS - A. SAYVETZ, J.CHEM.PHYS., 7, 383-389(1939).

 NOTE - THE MODES J,K ARE ORTHONORMALIZED ACCORDING TO
 SUM ON I   M(I) * (X(I,J)*X(I,K) + Y(I,J)*Y(I,K) + Z(I,J)*Z(I,K)) = DELTA(J,K)

  MODE FREQ(CM**-1)  SYMMETRY  RED. MASS  IR INTENS.
     1     136.783    A        4.670202    0.015635
     2      85.850    A        2.712634    0.111030
     3      66.615    A        3.960672    0.059635
     4      51.976    A        6.278267    0.169277
     5       0.106    A        8.253974    0.000000
     6       0.055    A        8.253013    0.000000
     7       0.025    A        8.254111    0.000000
     8      43.424    A        4.579281    0.056060
     9      64.970    A        9.288280    0.019108
    10     101.640    A        3.837058    0.013241
    11     135.931    A        3.815127    0.022078
    12     157.202    A        4.332434    0.102674
    13     204.240    A        5.363912    0.398000
    14     227.010    A        1.909526    0.015658
    15     264.980    A       10.287875    0.187684
    16     282.897    A        1.370046    0.048528
    17     289.259    A        1.291807    0.023664
    18     319.792    A        4.257248    0.135983
    19     347.013    A        6.629517    0.033473
    20     400.439    A        5.660249    0.032684
    21     420.605    A        7.916404    0.036615
    22     487.668    A       12.564080    0.182975
    23     521.338    A        4.233956    0.260113
    24     531.101    A       14.758254    0.248668
    25     550.632    A       11.321283    0.166852
    26     554.667    A        4.246079    0.113436
    27     610.665    A        3.391882    0.241550
    28     631.144    A        3.620979    0.103789
    29     686.716    A        4.251957    0.037516
    30     694.422    A        1.251319    0.562562
    31     747.068    A       18.682459    0.026427
    32     784.013    A        1.364391    0.331783
    33     811.059    A        1.354845    0.098047
    34     813.895    A        3.096717    0.091095
    35     875.480    A        1.259652    0.383187
    36     984.623    A        2.182058    0.028508
    37    1017.113    A        8.962914    9.792975
    38    1056.576    A        7.870229    7.858793
    39    1069.206    A        3.197160    3.006810
    40    1085.172    A        5.879334   10.702112
    41    1117.883    A        2.588625    0.103929
    42    1137.092    A        2.888300    0.114606
    43    1140.493    A        1.330586    0.347234
    44    1167.805    A        1.556575    0.800347
    45    1172.824    A        1.510608    0.049611
    46    1241.910    A        1.189711    0.874371
    47    1292.839    A        1.565748    0.382651
    48    1327.366    A        1.111608    0.039488
    49    1339.413    A        1.490030    0.960220
    50    1383.628    A        1.360897    0.172893
    51    1433.491    A        1.341997    0.098542
    52    1447.157    A        2.618239    0.235084
    53    1471.268    A        1.234901    0.068061
    54    1496.095    A        2.236978    0.751269
    55    1507.743    A        1.175084    0.059901
    56    1513.645    A        1.037977    0.240741
    57    1528.594    A        1.052680    0.167062
    58    1540.245    A        1.124741    0.213632
    59    1567.149    A        1.056312    0.411380
    60    1688.756    A        6.121879    2.637715
    61    1763.699    A        6.207639    0.150336
    62    3093.932    A        1.036565    0.108911
    63    3106.777    A        1.058332    0.423384
    64    3131.023    A        1.042521    0.754569
    65    3157.486    A        1.107528    0.051149
    66    3188.213    A        1.101845    0.234580
    67    3191.234    A        1.104743    0.244917
    68    3236.833    A        1.096482    0.074037
    69    3304.403    A        1.095487    0.177928
    70    3307.512    A        1.103829    0.065502
    71    3333.097    A        1.100192    0.261791
    72    3380.020    A        1.112402    5.712848

     -------------------------------
     THERMOCHEMISTRY AT T=  298.15 K
     -------------------------------

 USING IDEAL GAS, RIGID ROTOR, HARMONIC NORMAL MODE APPROXIMATIONS.
 P=  1.01325E+05 PASCAL.
 ALL FREQUENCIES ARE SCALED BY   1.00000
 THE MOMENTS OF INERTIA ARE (IN AMU*BOHR**2)
    960.17175  4454.04047  4929.81610
 THE ROTATIONAL SYMMETRY NUMBER IS  1.0
 THE ROTATIONAL CONSTANTS ARE (IN GHZ)
      1.87788     0.40482     0.36575
   2 IMAGINARY FREQUENCY VIBRATION(S) IS(ARE) EXCLUDED
     FROM THE FOLLOWING THERMOCHEMICAL ANALYSIS.
      9 -     72 VIBRATIONAL MODES ARE USED IN THERMOCHEMISTRY.
 THE HARMONIC ZERO POINT ENERGY IS (SCALED BY   1.000)
        0.187808 HARTREE/MOLECULE    41219.081433 CM**-1/MOLECULE 
      117.851386 KCAL/MOL              493.090199 KJ/MOL

               Q               LN Q
 ELEC.     1.00000E+00       0.000000
 TRANS.    1.09588E+08      18.512242
 ROT.      1.64365E+06      14.312428
 VIB.      9.99030E+02       6.906785
 TOT.      1.79950E+17      39.731454

              E         H         G         CV        CP        S
           KJ/MOL    KJ/MOL    KJ/MOL   J/MOL-K   J/MOL-K   J/MOL-K
 ELEC.      0.000     0.000     0.000     0.000     0.000     0.000
 TRANS.     3.718     6.197   -45.891    12.472    20.786   174.704
 ROT.       3.718     3.718   -35.480    12.472    12.472   131.471
 VIB.     516.485   516.485   475.969   166.381   166.381   135.891
 TOTAL    523.921   526.400   394.598   191.324   199.638   442.067
 VIB. THERMAL CORRECTION E(T)-E(0) = H(T)-H(0) = 23394.439 J/MOL

              E         H         G         CV        CP        S
         KCAL/MOL  KCAL/MOL  KCAL/MOL CAL/MOL-K CAL/MOL-K CAL/MOL-K
 ELEC.      0.000     0.000     0.000     0.000     0.000     0.000
 TRANS.     0.889     1.481   -10.968     2.981     4.968    41.755
 ROT.       0.889     0.889    -8.480     2.981     2.981    31.422
 VIB.     123.443   123.443   113.759    39.766    39.766    32.479
 TOTAL    125.220   125.813    94.311    45.728    47.715   105.656
 VIB. THERMAL CORRECTION E(T)-E(0) = H(T)-H(0) =  5591.405 CAL/MOL

     *******************************************************
     * THIS IS NOT A STATIONARY POINT ON THE MOLECULAR PES *
     *     THE VIBRATIONAL ANALYSIS IS NOT VALID !!!       *
     *******************************************************
 ......END OF NORMAL COORDINATE ANALYSIS......
 CPU     0: STEP CPU TIME=     0.01 TOTAL CPU TIME=      48495.3 (    808.3 MIN)
 TOTAL WALL CLOCK TIME=      53763.8 SECONDS, CPU UTILIZATION IS    90.20%
 AN INPUT FILE FOR -MOLPLT- HAS BEEN PUNCHED.
              2614304  WORDS OF DYNAMIC MEMORY USED
 EXECUTION OF GAMESS TERMINATED NORMALLY Tue Jun 25 23:48:08 2019
 DDI: 153069632 bytes (146.0 MB / 18 MWords) used by master data server.

 ----------------------------------------
 CPU timing information for all processes
 ========================================
 0: 48413.117 + 82.228 = 48495.345
 1: 49138.501 + 43.164 = 49181.665
 2: 50617.362 + 54.422 = 50671.784
 3: 50985.209 + 44.138 = 51029.348
 4: 51385.281 + 63.131 = 51448.413
 5: 51938.936 + 42.862 = 51981.799
 6: 51631.212 + 54.467 = 51685.679
 7: 52058.307 + 40.232 = 52098.540
 8: 51834.401 + 62.863 = 51897.265
 9: 51916.71 + 36.955 = 51953.26
 10: 52231.710 + 45.146 = 52276.857
 11: 52311.370 + 36.819 = 52348.189
 12: 52573.982 + 53.285 = 52627.267
 13: 52145.700 + 36.418 = 52182.118
 14: 52059.270 + 46.102 = 52105.372
 15: 52561.951 + 35.728 = 52597.680
 ----------------------------------------
 ddikick.x: exited gracefully.
----- accounting info -----
Files used on the master node node014 were:
-rw-r--r-- 1 mdi0316 at2  4793601 Jun 25  2019 /data/scratch-no-backup/mdi0316/rungms/1221875/tmp/gms_SCAN_from_ISOLATED_emim_bf4_T_5_P_90_R_3.9_N311_B3LYP_HES_MP2.dat
-rw-r--r-- 1 mdi0316 at2     4303 Jun 25 09:03 /data/scratch-no-backup/mdi0316/rungms/1221875/tmp/gms_SCAN_from_ISOLATED_emim_bf4_T_5_P_90_R_3.9_N311_B3LYP_HES_MP2.F05
-rw-r--r-- 1 mdi0316 at2 19697440 Jun 25  2019 /data/scratch-no-backup/mdi0316/rungms/1221875/tmp/gms_SCAN_from_ISOLATED_emim_bf4_T_5_P_90_R_3.9_N311_B3LYP_HES_MP2.F10
-rw-r--r-- 1 mdi0316 at2   185890 Jun 25  2019 /data/scratch-no-backup/mdi0316/rungms/1221875/tmp/gms_SCAN_from_ISOLATED_emim_bf4_T_5_P_90_R_3.9_N311_B3LYP_HES_MP2.rst
Tue Jun 25 23:48:11 CEST 2019
0.351u 0.087s 14:56:08.29 0.0%	0+0k 8+10io 0pf+0w
