LAMMPS (16 Mar 2018)
Created orthogonal box = (-40 -40 -40) to (40 40 40)
  1 by 1 by 1 MPI processor grid
Created 1 atoms
  Time spent = 1.00136e-05 secs
Created 1 atoms
  Time spent = 0.00160384 secs
Created 1 atoms
  Time spent = 5.00679e-06 secs
Created 1 atoms
  Time spent = 7.15256e-06 secs
1 atoms in group anion
1 atoms in group ring
1 atoms in group methyl
1 atoms in group ethyl
Setting atom values ...
  1 settings made for charge
Setting atom values ...
  1 settings made for charge
Setting atom values ...
  1 settings made for charge
Setting atom values ...
  1 settings made for charge
Finding 1-2 1-3 1-4 neighbors ...
  special bond factors lj:   0          0          0         
  special bond factors coul: 0          0          0         
  1 = max # of 1-2 neighbors
  0 = max # of 1-3 neighbors
  0 = max # of 1-4 neighbors
  1 = max # of special neighbors
Finding 1-2 1-3 1-4 neighbors ...
  special bond factors lj:   0          0          0         
  special bond factors coul: 0          0          0         
  2 = max # of 1-2 neighbors
  1 = max # of 1-3 neighbors
  1 = max # of 1-4 neighbors
  2 = max # of special neighbors
Finding 1-2 1-3 1-4 neighbors ...
  special bond factors lj:   0          0          0         
  special bond factors coul: 0          0          0         
  2 = max # of 1-2 neighbors
  1 = max # of 1-3 neighbors
  1 = max # of 1-4 neighbors
  2 = max # of special neighbors
System init for write_data ...
PPPM initialization ...
  using 12-bit tables for long-range coulomb (../kspace.cpp:321)
  G vector (1/distance) = 0.0299583
  grid = 2 2 2
  stencil order = 5
  estimated absolute RMS force accuracy = 0.00155756
  estimated relative force accuracy = 0.000108167
  using double precision FFTs
  3d grid and FFT values/proc = 343 8
Neighbor list info ...
  update every 1 steps, delay 0 steps, check yes
  max neighbors/atom: 2000, page size: 100000
  master list distance cutoff = 32
  ghost atom cutoff = 32
  binsize = 16, bins = 5 5 5
  1 neighbor lists, perpetual/occasional/extra = 1 0 0
  (1) pair nm/cut/coul/long, perpetual
      attributes: half, newton on
      pair build: half/bin/newton
      stencil: half/bin/3d/newton
      bin: standard
Setting atom values ...
  1 settings made for x
  1 settings made for y
  1 settings made for z
PPPM initialization ...
  using 12-bit tables for long-range coulomb (../kspace.cpp:321)
  G vector (1/distance) = 0.0299583
  grid = 2 2 2
  stencil order = 5
  estimated absolute RMS force accuracy = 0.00155756
  estimated relative force accuracy = 0.000108167
  using double precision FFTs
  3d grid and FFT values/proc = 343 8
Setting up Verlet run ...
  Unit style    : metal
  Current step  : 0
  Time step     : 1
  PPPM/cg optimization cutoff: 1e-05
  Total charged atoms: 100.0%
  Min/max charged atoms/proc: 100.0% 100.0%
Per MPI rank memory allocation (min/avg/max) = 9.869 | 9.869 | 9.869 Mbytes
Step Temp PotEng KinEng E_bond Press Density 
       0            0    2.4216068            0  0.014032111    143.02634 0.00064151289 
       1            0    2.4216068            0  0.014032111    143.02634 0.00064151289 
Loop time of 5.29289e-05 on 1 procs for 1 steps with 4 atoms

Performance: 1632377.773 ns/day, 0.000 hours/ns, 18893.261 timesteps/s
68.0% CPU use with 1 MPI tasks x no OpenMP threads

MPI task timing breakdown:
Section |  min time  |  avg time  |  max time  |%varavg| %total
---------------------------------------------------------------
Pair    | 4.0531e-06 | 4.0531e-06 | 4.0531e-06 |   0.0 |  7.66
Bond    | 1.9073e-06 | 1.9073e-06 | 1.9073e-06 |   0.0 |  3.60
Kspace  | 1.812e-05  | 1.812e-05  | 1.812e-05  |   0.0 | 34.23
Neigh   | 0          | 0          | 0          |   0.0 |  0.00
Comm    | 0          | 0          | 0          |   0.0 |  0.00
Output  | 6.1989e-06 | 6.1989e-06 | 6.1989e-06 |   0.0 | 11.71
Modify  | 1.9789e-05 | 1.9789e-05 | 1.9789e-05 |   0.0 | 37.39
Other   |            | 2.861e-06  |            |       |  5.41

Nlocal:    4 ave 4 max 4 min
Histogram: 1 0 0 0 0 0 0 0 0 0
Nghost:    0 ave 0 max 0 min
Histogram: 1 0 0 0 0 0 0 0 0 0
Neighs:    6 ave 6 max 6 min
Histogram: 1 0 0 0 0 0 0 0 0 0

Total # of neighbors = 6
Ave neighs/atom = 1.5
Ave special neighs/atom = 1.5
Neighbor list builds = 0
Dangerous builds = 0
Setting atom values ...
  1 settings made for x
  1 settings made for y
  1 settings made for z
PPPM initialization ...
  using 12-bit tables for long-range coulomb (../kspace.cpp:321)
  G vector (1/distance) = 0.0299583
  grid = 2 2 2
  stencil order = 5
  estimated absolute RMS force accuracy = 0.00155756
  estimated relative force accuracy = 0.000108167
  using double precision FFTs
  3d grid and FFT values/proc = 343 8
Setting up Verlet run ...
  Unit style    : metal
  Current step  : 1
  Time step     : 1
Per MPI rank memory allocation (min/avg/max) = 9.869 | 9.869 | 9.869 Mbytes
Step Temp PotEng KinEng E_bond Press Density 
       1            0   -2.7263444            0  0.014032111    7.7669738 0.00064151289 
       2            0   -2.7263444            0  0.014032111    7.7669738 0.00064151289 
Loop time of 4.00543e-05 on 1 procs for 1 steps with 4 atoms

Performance: 2157070.629 ns/day, 0.000 hours/ns, 24966.095 timesteps/s
99.9% CPU use with 1 MPI tasks x no OpenMP threads

MPI task timing breakdown:
Section |  min time  |  avg time  |  max time  |%varavg| %total
---------------------------------------------------------------
Pair    | 4.0531e-06 | 4.0531e-06 | 4.0531e-06 |   0.0 | 10.12
Bond    | 9.5367e-07 | 9.5367e-07 | 9.5367e-07 |   0.0 |  2.38
Kspace  | 1.2159e-05 | 1.2159e-05 | 1.2159e-05 |   0.0 | 30.36
Neigh   | 0          | 0          | 0          |   0.0 |  0.00
Comm    | 9.5367e-07 | 9.5367e-07 | 9.5367e-07 |   0.0 |  2.38
Output  | 5.0068e-06 | 5.0068e-06 | 5.0068e-06 |   0.0 | 12.50
Modify  | 1.502e-05  | 1.502e-05  | 1.502e-05  |   0.0 | 37.50
Other   |            | 1.907e-06  |            |       |  4.76

Nlocal:    4 ave 4 max 4 min
Histogram: 1 0 0 0 0 0 0 0 0 0
Nghost:    0 ave 0 max 0 min
Histogram: 1 0 0 0 0 0 0 0 0 0
Neighs:    6 ave 6 max 6 min
Histogram: 1 0 0 0 0 0 0 0 0 0

Total # of neighbors = 6
Ave neighs/atom = 1.5
Ave special neighs/atom = 1.5
Neighbor list builds = 0
Dangerous builds = 0
Setting atom values ...
  1 settings made for x
  1 settings made for y
  1 settings made for z
PPPM initialization ...
  using 12-bit tables for long-range coulomb (../kspace.cpp:321)
  G vector (1/distance) = 0.0299583
  grid = 2 2 2
  stencil order = 5
  estimated absolute RMS force accuracy = 0.00155756
  estimated relative force accuracy = 0.000108167
  using double precision FFTs
  3d grid and FFT values/proc = 343 8
Setting up Verlet run ...
  Unit style    : metal
  Current step  : 2
  Time step     : 1
Per MPI rank memory allocation (min/avg/max) = 9.869 | 9.869 | 9.869 Mbytes
Step Temp PotEng KinEng E_bond Press Density 
       2            0   -1.8168173            0  0.014032111    8.7227161 0.00064151289 
       3            0   -1.8168173            0  0.014032111    8.7227161 0.00064151289 
Loop time of 3.8147e-05 on 1 procs for 1 steps with 4 atoms

Performance: 2264924.160 ns/day, 0.000 hours/ns, 26214.400 timesteps/s
99.6% CPU use with 1 MPI tasks x no OpenMP threads

MPI task timing breakdown:
Section |  min time  |  avg time  |  max time  |%varavg| %total
---------------------------------------------------------------
Pair    | 3.8147e-06 | 3.8147e-06 | 3.8147e-06 |   0.0 | 10.00
Bond    | 9.5367e-07 | 9.5367e-07 | 9.5367e-07 |   0.0 |  2.50
Kspace  | 1.2159e-05 | 1.2159e-05 | 1.2159e-05 |   0.0 | 31.87
Neigh   | 0          | 0          | 0          |   0.0 |  0.00
Comm    | 0          | 0          | 0          |   0.0 |  0.00
Output  | 5.0068e-06 | 5.0068e-06 | 5.0068e-06 |   0.0 | 13.12
Modify  | 1.5259e-05 | 1.5259e-05 | 1.5259e-05 |   0.0 | 40.00
Other   |            | 9.537e-07  |            |       |  2.50

Nlocal:    4 ave 4 max 4 min
Histogram: 1 0 0 0 0 0 0 0 0 0
Nghost:    0 ave 0 max 0 min
Histogram: 1 0 0 0 0 0 0 0 0 0
Neighs:    6 ave 6 max 6 min
Histogram: 1 0 0 0 0 0 0 0 0 0

Total # of neighbors = 6
Ave neighs/atom = 1.5
Ave special neighs/atom = 1.5
Neighbor list builds = 0
Dangerous builds = 0
Setting atom values ...
  1 settings made for x
  1 settings made for y
  1 settings made for z
PPPM initialization ...
  using 12-bit tables for long-range coulomb (../kspace.cpp:321)
  G vector (1/distance) = 0.0299583
  grid = 2 2 2
  stencil order = 5
  estimated absolute RMS force accuracy = 0.00155756
  estimated relative force accuracy = 0.000108167
  using double precision FFTs
  3d grid and FFT values/proc = 343 8
Setting up Verlet run ...
  Unit style    : metal
  Current step  : 3
  Time step     : 1
Per MPI rank memory allocation (min/avg/max) = 9.869 | 9.869 | 9.869 Mbytes
Step Temp PotEng KinEng E_bond Press Density 
       3            0   -1.3964568            0  0.014032111    9.1637274 0.00064151289 
       4            0   -1.3964568            0  0.014032111    9.1637274 0.00064151289 
Loop time of 3.69549e-05 on 1 procs for 1 steps with 4 atoms

Performance: 2337986.230 ns/day, 0.000 hours/ns, 27060.026 timesteps/s
100.1% CPU use with 1 MPI tasks x no OpenMP threads

MPI task timing breakdown:
Section |  min time  |  avg time  |  max time  |%varavg| %total
---------------------------------------------------------------
Pair    | 2.861e-06  | 2.861e-06  | 2.861e-06  |   0.0 |  7.74
Bond    | 1.1921e-06 | 1.1921e-06 | 1.1921e-06 |   0.0 |  3.23
Kspace  | 1.1921e-05 | 1.1921e-05 | 1.1921e-05 |   0.0 | 32.26
Neigh   | 0          | 0          | 0          |   0.0 |  0.00
Comm    | 9.5367e-07 | 9.5367e-07 | 9.5367e-07 |   0.0 |  2.58
Output  | 5.0068e-06 | 5.0068e-06 | 5.0068e-06 |   0.0 | 13.55
Modify  | 1.3113e-05 | 1.3113e-05 | 1.3113e-05 |   0.0 | 35.48
Other   |            | 1.907e-06  |            |       |  5.16

Nlocal:    4 ave 4 max 4 min
Histogram: 1 0 0 0 0 0 0 0 0 0
Nghost:    0 ave 0 max 0 min
Histogram: 1 0 0 0 0 0 0 0 0 0
Neighs:    6 ave 6 max 6 min
Histogram: 1 0 0 0 0 0 0 0 0 0

Total # of neighbors = 6
Ave neighs/atom = 1.5
Ave special neighs/atom = 1.5
Neighbor list builds = 0
Dangerous builds = 0
Setting atom values ...
  1 settings made for x
  1 settings made for y
  1 settings made for z
PPPM initialization ...
  using 12-bit tables for long-range coulomb (../kspace.cpp:321)
  G vector (1/distance) = 0.0299583
  grid = 2 2 2
  stencil order = 5
  estimated absolute RMS force accuracy = 0.00155756
  estimated relative force accuracy = 0.000108167
  using double precision FFTs
  3d grid and FFT values/proc = 343 8
Setting up Verlet run ...
  Unit style    : metal
  Current step  : 4
  Time step     : 1
Per MPI rank memory allocation (min/avg/max) = 9.869 | 9.869 | 9.869 Mbytes
Step Temp PotEng KinEng E_bond Press Density 
       4            0   -1.1451583            0  0.014032111    9.4285371 0.00064151289 
       5            0   -1.1451583            0  0.014032111    9.4285371 0.00064151289 
Loop time of 3.79086e-05 on 1 procs for 1 steps with 4 atoms

Performance: 2279168.966 ns/day, 0.000 hours/ns, 26379.270 timesteps/s
73.9% CPU use with 1 MPI tasks x no OpenMP threads

MPI task timing breakdown:
Section |  min time  |  avg time  |  max time  |%varavg| %total
---------------------------------------------------------------
Pair    | 4.0531e-06 | 4.0531e-06 | 4.0531e-06 |   0.0 | 10.69
Bond    | 0          | 0          | 0          |   0.0 |  0.00
Kspace  | 1.3113e-05 | 1.3113e-05 | 1.3113e-05 |   0.0 | 34.59
Neigh   | 0          | 0          | 0          |   0.0 |  0.00
Comm    | 9.5367e-07 | 9.5367e-07 | 9.5367e-07 |   0.0 |  2.52
Output  | 5.0068e-06 | 5.0068e-06 | 5.0068e-06 |   0.0 | 13.21
Modify  | 1.2875e-05 | 1.2875e-05 | 1.2875e-05 |   0.0 | 33.96
Other   |            | 1.907e-06  |            |       |  5.03

Nlocal:    4 ave 4 max 4 min
Histogram: 1 0 0 0 0 0 0 0 0 0
Nghost:    0 ave 0 max 0 min
Histogram: 1 0 0 0 0 0 0 0 0 0
Neighs:    6 ave 6 max 6 min
Histogram: 1 0 0 0 0 0 0 0 0 0

Total # of neighbors = 6
Ave neighs/atom = 1.5
Ave special neighs/atom = 1.5
Neighbor list builds = 0
Dangerous builds = 0
Setting atom values ...
  1 settings made for x
  1 settings made for y
  1 settings made for z
PPPM initialization ...
  using 12-bit tables for long-range coulomb (../kspace.cpp:321)
  G vector (1/distance) = 0.0299583
  grid = 2 2 2
  stencil order = 5
  estimated absolute RMS force accuracy = 0.00155756
  estimated relative force accuracy = 0.000108167
  using double precision FFTs
  3d grid and FFT values/proc = 343 8
Setting up Verlet run ...
  Unit style    : metal
  Current step  : 5
  Time step     : 1
Per MPI rank memory allocation (min/avg/max) = 9.869 | 9.869 | 9.869 Mbytes
Step Temp PotEng KinEng E_bond Press Density 
       5            0  -0.97515016            0  0.014032111    9.6088518 0.00064151289 
       6            0  -0.97515016            0  0.014032111    9.6088518 0.00064151289 
Loop time of 3.91006e-05 on 1 procs for 1 steps with 4 atoms

Performance: 2209682.107 ns/day, 0.000 hours/ns, 25575.024 timesteps/s
99.7% CPU use with 1 MPI tasks x no OpenMP threads

MPI task timing breakdown:
Section |  min time  |  avg time  |  max time  |%varavg| %total
---------------------------------------------------------------
Pair    | 4.0531e-06 | 4.0531e-06 | 4.0531e-06 |   0.0 | 10.37
Bond    | 9.5367e-07 | 9.5367e-07 | 9.5367e-07 |   0.0 |  2.44
Kspace  | 1.1921e-05 | 1.1921e-05 | 1.1921e-05 |   0.0 | 30.49
Neigh   | 0          | 0          | 0          |   0.0 |  0.00
Comm    | 1.1921e-06 | 1.1921e-06 | 1.1921e-06 |   0.0 |  3.05
Output  | 5.0068e-06 | 5.0068e-06 | 5.0068e-06 |   0.0 | 12.80
Modify  | 1.2875e-05 | 1.2875e-05 | 1.2875e-05 |   0.0 | 32.93
Other   |            | 3.099e-06  |            |       |  7.93

Nlocal:    4 ave 4 max 4 min
Histogram: 1 0 0 0 0 0 0 0 0 0
Nghost:    0 ave 0 max 0 min
Histogram: 1 0 0 0 0 0 0 0 0 0
Neighs:    6 ave 6 max 6 min
Histogram: 1 0 0 0 0 0 0 0 0 0

Total # of neighbors = 6
Ave neighs/atom = 1.5
Ave special neighs/atom = 1.5
Neighbor list builds = 0
Dangerous builds = 0
Setting atom values ...
  1 settings made for x
  1 settings made for y
  1 settings made for z
PPPM initialization ...
  using 12-bit tables for long-range coulomb (../kspace.cpp:321)
  G vector (1/distance) = 0.0299583
  grid = 2 2 2
  stencil order = 5
  estimated absolute RMS force accuracy = 0.00155756
  estimated relative force accuracy = 0.000108167
  using double precision FFTs
  3d grid and FFT values/proc = 343 8
Setting up Verlet run ...
  Unit style    : metal
  Current step  : 6
  Time step     : 1
Per MPI rank memory allocation (min/avg/max) = 9.869 | 9.869 | 9.869 Mbytes
Step Temp PotEng KinEng E_bond Press Density 
       6            0   -0.8514652            0  0.014032111    9.7411431 0.00064151289 
       7            0   -0.8514652            0  0.014032111    9.7411431 0.00064151289 
Loop time of 2.09808e-05 on 1 procs for 1 steps with 4 atoms

Performance: 4118043.927 ns/day, 0.000 hours/ns, 47662.545 timesteps/s
104.9% CPU use with 1 MPI tasks x no OpenMP threads

MPI task timing breakdown:
Section |  min time  |  avg time  |  max time  |%varavg| %total
---------------------------------------------------------------
Pair    | 1.9073e-06 | 1.9073e-06 | 1.9073e-06 |   0.0 |  9.09
Bond    | 9.5367e-07 | 9.5367e-07 | 9.5367e-07 |   0.0 |  4.55
Kspace  | 6.9141e-06 | 6.9141e-06 | 6.9141e-06 |   0.0 | 32.95
Neigh   | 0          | 0          | 0          |   0.0 |  0.00
Comm    | 0          | 0          | 0          |   0.0 |  0.00
Output  | 1.9073e-06 | 1.9073e-06 | 1.9073e-06 |   0.0 |  9.09
Modify  | 8.1062e-06 | 8.1062e-06 | 8.1062e-06 |   0.0 | 38.64
Other   |            | 1.192e-06  |            |       |  5.68

Nlocal:    4 ave 4 max 4 min
Histogram: 1 0 0 0 0 0 0 0 0 0
Nghost:    1 ave 1 max 1 min
Histogram: 1 0 0 0 0 0 0 0 0 0
Neighs:    6 ave 6 max 6 min
Histogram: 1 0 0 0 0 0 0 0 0 0

Total # of neighbors = 6
Ave neighs/atom = 1.5
Ave special neighs/atom = 1.5
Neighbor list builds = 0
Dangerous builds = 0
Setting atom values ...
  1 settings made for x
  1 settings made for y
  1 settings made for z
PPPM initialization ...
  using 12-bit tables for long-range coulomb (../kspace.cpp:321)
  G vector (1/distance) = 0.0299583
  grid = 2 2 2
  stencil order = 5
  estimated absolute RMS force accuracy = 0.00155756
  estimated relative force accuracy = 0.000108167
  using double precision FFTs
  3d grid and FFT values/proc = 343 8
Setting up Verlet run ...
  Unit style    : metal
  Current step  : 7
  Time step     : 1
Per MPI rank memory allocation (min/avg/max) = 9.869 | 9.869 | 9.869 Mbytes
Step Temp PotEng KinEng E_bond Press Density 
       7            0  -0.75706178            0  0.014032111    9.8431603 0.00064151289 
       8            0  -0.75706178            0  0.014032111    9.8431603 0.00064151289 
Loop time of 2.00272e-05 on 1 procs for 1 steps with 4 atoms

Performance: 4314141.257 ns/day, 0.000 hours/ns, 49932.190 timesteps/s
104.9% CPU use with 1 MPI tasks x no OpenMP threads

MPI task timing breakdown:
Section |  min time  |  avg time  |  max time  |%varavg| %total
---------------------------------------------------------------
Pair    | 1.9073e-06 | 1.9073e-06 | 1.9073e-06 |   0.0 |  9.52
Bond    | 0          | 0          | 0          |   0.0 |  0.00
Kspace  | 6.9141e-06 | 6.9141e-06 | 6.9141e-06 |   0.0 | 34.52
Neigh   | 0          | 0          | 0          |   0.0 |  0.00
Comm    | 1.1921e-06 | 1.1921e-06 | 1.1921e-06 |   0.0 |  5.95
Output  | 1.9073e-06 | 1.9073e-06 | 1.9073e-06 |   0.0 |  9.52
Modify  | 7.1526e-06 | 7.1526e-06 | 7.1526e-06 |   0.0 | 35.71
Other   |            | 9.537e-07  |            |       |  4.76

Nlocal:    4 ave 4 max 4 min
Histogram: 1 0 0 0 0 0 0 0 0 0
Nghost:    1 ave 1 max 1 min
Histogram: 1 0 0 0 0 0 0 0 0 0
Neighs:    6 ave 6 max 6 min
Histogram: 1 0 0 0 0 0 0 0 0 0

Total # of neighbors = 6
Ave neighs/atom = 1.5
Ave special neighs/atom = 1.5
Neighbor list builds = 0
Dangerous builds = 0
Setting atom values ...
  1 settings made for x
  1 settings made for y
  1 settings made for z
PPPM initialization ...
  using 12-bit tables for long-range coulomb (../kspace.cpp:321)
  G vector (1/distance) = 0.0299583
  grid = 2 2 2
  stencil order = 5
  estimated absolute RMS force accuracy = 0.00155756
  estimated relative force accuracy = 0.000108167
  using double precision FFTs
  3d grid and FFT values/proc = 343 8
Setting up Verlet run ...
  Unit style    : metal
  Current step  : 8
  Time step     : 1
Per MPI rank memory allocation (min/avg/max) = 9.869 | 9.869 | 9.869 Mbytes
Step Temp PotEng KinEng E_bond Press Density 
       8            0   -0.6221172            0  0.014032111    9.9916802 0.00064151289 
       9            0   -0.6221172            0  0.014032111    9.9916802 0.00064151289 
Loop time of 2.00272e-05 on 1 procs for 1 steps with 4 atoms

Performance: 4314141.257 ns/day, 0.000 hours/ns, 49932.190 timesteps/s
104.9% CPU use with 1 MPI tasks x no OpenMP threads

MPI task timing breakdown:
Section |  min time  |  avg time  |  max time  |%varavg| %total
---------------------------------------------------------------
Pair    | 1.9073e-06 | 1.9073e-06 | 1.9073e-06 |   0.0 |  9.52
Bond    | 1.1921e-06 | 1.1921e-06 | 1.1921e-06 |   0.0 |  5.95
Kspace  | 5.9605e-06 | 5.9605e-06 | 5.9605e-06 |   0.0 | 29.76
Neigh   | 0          | 0          | 0          |   0.0 |  0.00
Comm    | 0          | 0          | 0          |   0.0 |  0.00
Output  | 2.1458e-06 | 2.1458e-06 | 2.1458e-06 |   0.0 | 10.71
Modify  | 7.8678e-06 | 7.8678e-06 | 7.8678e-06 |   0.0 | 39.29
Other   |            | 9.537e-07  |            |       |  4.76

Nlocal:    4 ave 4 max 4 min
Histogram: 1 0 0 0 0 0 0 0 0 0
Nghost:    1 ave 1 max 1 min
Histogram: 1 0 0 0 0 0 0 0 0 0
Neighs:    6 ave 6 max 6 min
Histogram: 1 0 0 0 0 0 0 0 0 0

Total # of neighbors = 6
Ave neighs/atom = 1.5
Ave special neighs/atom = 1.5
Neighbor list builds = 0
Dangerous builds = 0
Setting atom values ...
  1 settings made for x
  1 settings made for y
  1 settings made for z
PPPM initialization ...
  using 12-bit tables for long-range coulomb (../kspace.cpp:321)
  G vector (1/distance) = 0.0299583
  grid = 2 2 2
  stencil order = 5
  estimated absolute RMS force accuracy = 0.00155756
  estimated relative force accuracy = 0.000108167
  using double precision FFTs
  3d grid and FFT values/proc = 343 8
Setting up Verlet run ...
  Unit style    : metal
  Current step  : 9
  Time step     : 1
Per MPI rank memory allocation (min/avg/max) = 9.869 | 9.869 | 9.869 Mbytes
Step Temp PotEng KinEng E_bond Press Density 
       9            0  -0.49469731            0  0.014032111    10.137348 0.00064151289 
      10            0  -0.49469731            0  0.014032111    10.137348 0.00064151289 
Loop time of 2.00272e-05 on 1 procs for 1 steps with 4 atoms

Performance: 4314141.257 ns/day, 0.000 hours/ns, 49932.190 timesteps/s
104.9% CPU use with 1 MPI tasks x no OpenMP threads

MPI task timing breakdown:
Section |  min time  |  avg time  |  max time  |%varavg| %total
---------------------------------------------------------------
Pair    | 9.5367e-07 | 9.5367e-07 | 9.5367e-07 |   0.0 |  4.76
Bond    | 9.5367e-07 | 9.5367e-07 | 9.5367e-07 |   0.0 |  4.76
Kspace  | 6.1989e-06 | 6.1989e-06 | 6.1989e-06 |   0.0 | 30.95
Neigh   | 0          | 0          | 0          |   0.0 |  0.00
Comm    | 1.9073e-06 | 1.9073e-06 | 1.9073e-06 |   0.0 |  9.52
Output  | 3.0994e-06 | 3.0994e-06 | 3.0994e-06 |   0.0 | 15.48
Modify  | 6.9141e-06 | 6.9141e-06 | 6.9141e-06 |   0.0 | 34.52
Other   |            | 0          |            |       |  0.00

Nlocal:    4 ave 4 max 4 min
Histogram: 1 0 0 0 0 0 0 0 0 0
Nghost:    1 ave 1 max 1 min
Histogram: 1 0 0 0 0 0 0 0 0 0
Neighs:    6 ave 6 max 6 min
Histogram: 1 0 0 0 0 0 0 0 0 0

Total # of neighbors = 6
Ave neighs/atom = 1.5
Ave special neighs/atom = 1.5
Neighbor list builds = 0
Dangerous builds = 0
Setting atom values ...
  1 settings made for x
  1 settings made for y
  1 settings made for z
PPPM initialization ...
  using 12-bit tables for long-range coulomb (../kspace.cpp:321)
  G vector (1/distance) = 0.0299583
  grid = 2 2 2
  stencil order = 5
  estimated absolute RMS force accuracy = 0.00155756
  estimated relative force accuracy = 0.000108167
  using double precision FFTs
  3d grid and FFT values/proc = 343 8
Setting up Verlet run ...
  Unit style    : metal
  Current step  : 10
  Time step     : 1
Per MPI rank memory allocation (min/avg/max) = 9.869 | 9.869 | 9.869 Mbytes
Step Temp PotEng KinEng E_bond Press Density 
      10            0  -0.37576814            0  0.014032111    10.283383 0.00064151289 
      11            0  -0.37576814            0  0.014032111    10.283383 0.00064151289 
Loop time of 2.09808e-05 on 1 procs for 1 steps with 4 atoms

Performance: 4118043.927 ns/day, 0.000 hours/ns, 47662.545 timesteps/s
95.3% CPU use with 1 MPI tasks x no OpenMP threads

MPI task timing breakdown:
Section |  min time  |  avg time  |  max time  |%varavg| %total
---------------------------------------------------------------
Pair    | 2.1458e-06 | 2.1458e-06 | 2.1458e-06 |   0.0 | 10.23
Bond    | 0          | 0          | 0          |   0.0 |  0.00
Kspace  | 6.9141e-06 | 6.9141e-06 | 6.9141e-06 |   0.0 | 32.95
Neigh   | 0          | 0          | 0          |   0.0 |  0.00
Comm    | 0          | 0          | 0          |   0.0 |  0.00
Output  | 3.0994e-06 | 3.0994e-06 | 3.0994e-06 |   0.0 | 14.77
Modify  | 6.9141e-06 | 6.9141e-06 | 6.9141e-06 |   0.0 | 32.95
Other   |            | 1.907e-06  |            |       |  9.09

Nlocal:    4 ave 4 max 4 min
Histogram: 1 0 0 0 0 0 0 0 0 0
Nghost:    1 ave 1 max 1 min
Histogram: 1 0 0 0 0 0 0 0 0 0
Neighs:    6 ave 6 max 6 min
Histogram: 1 0 0 0 0 0 0 0 0 0

Total # of neighbors = 6
Ave neighs/atom = 1.5
Ave special neighs/atom = 1.5
Neighbor list builds = 0
Dangerous builds = 0
Setting atom values ...
  1 settings made for x
  1 settings made for y
  1 settings made for z
PPPM initialization ...
  using 12-bit tables for long-range coulomb (../kspace.cpp:321)
  G vector (1/distance) = 0.0299583
  grid = 2 2 2
  stencil order = 5
  estimated absolute RMS force accuracy = 0.00155756
  estimated relative force accuracy = 0.000108167
  using double precision FFTs
  3d grid and FFT values/proc = 343 8
Setting up Verlet run ...
  Unit style    : metal
  Current step  : 11
  Time step     : 1
Per MPI rank memory allocation (min/avg/max) = 9.869 | 9.869 | 9.869 Mbytes
Step Temp PotEng KinEng E_bond Press Density 
      11            0  -0.24100796            0  0.014032111    10.536982 0.00064151289 
      12            0  -0.24100796            0  0.014032111    10.536982 0.00064151289 
Loop time of 1.90735e-05 on 1 procs for 1 steps with 4 atoms

Performance: 4529848.320 ns/day, 0.000 hours/ns, 52428.800 timesteps/s
104.9% CPU use with 1 MPI tasks x no OpenMP threads

MPI task timing breakdown:
Section |  min time  |  avg time  |  max time  |%varavg| %total
---------------------------------------------------------------
Pair    | 9.5367e-07 | 9.5367e-07 | 9.5367e-07 |   0.0 |  5.00
Bond    | 9.5367e-07 | 9.5367e-07 | 9.5367e-07 |   0.0 |  5.00
Kspace  | 5.9605e-06 | 5.9605e-06 | 5.9605e-06 |   0.0 | 31.25
Neigh   | 0          | 0          | 0          |   0.0 |  0.00
Comm    | 1.1921e-06 | 1.1921e-06 | 1.1921e-06 |   0.0 |  6.25
Output  | 1.9073e-06 | 1.9073e-06 | 1.9073e-06 |   0.0 | 10.00
Modify  | 7.1526e-06 | 7.1526e-06 | 7.1526e-06 |   0.0 | 37.50
Other   |            | 9.537e-07  |            |       |  5.00

Nlocal:    4 ave 4 max 4 min
Histogram: 1 0 0 0 0 0 0 0 0 0
Nghost:    1 ave 1 max 1 min
Histogram: 1 0 0 0 0 0 0 0 0 0
Neighs:    5 ave 5 max 5 min
Histogram: 1 0 0 0 0 0 0 0 0 0

Total # of neighbors = 5
Ave neighs/atom = 1.25
Ave special neighs/atom = 1.5
Neighbor list builds = 0
Dangerous builds = 0
Setting atom values ...
  1 settings made for x
  1 settings made for y
  1 settings made for z
PPPM initialization ...
  using 12-bit tables for long-range coulomb (../kspace.cpp:321)
  G vector (1/distance) = 0.0299583
  grid = 2 2 2
  stencil order = 5
  estimated absolute RMS force accuracy = 0.00155756
  estimated relative force accuracy = 0.000108167
  using double precision FFTs
  3d grid and FFT values/proc = 343 8
Setting up Verlet run ...
  Unit style    : metal
  Current step  : 12
  Time step     : 1
Per MPI rank memory allocation (min/avg/max) = 9.869 | 9.869 | 9.869 Mbytes
Step Temp PotEng KinEng E_bond Press Density 
      12            0   -2.2587535            0  0.014032111    8.2093981 0.00064151289 
      13            0   -2.2587535            0  0.014032111    8.2093981 0.00064151289 
Loop time of 2.09808e-05 on 1 procs for 1 steps with 4 atoms

Performance: 4118043.927 ns/day, 0.000 hours/ns, 47662.545 timesteps/s
81.0% CPU use with 1 MPI tasks x no OpenMP threads

MPI task timing breakdown:
Section |  min time  |  avg time  |  max time  |%varavg| %total
---------------------------------------------------------------
Pair    | 2.1458e-06 | 2.1458e-06 | 2.1458e-06 |   0.0 | 10.23
Bond    | 0          | 0          | 0          |   0.0 |  0.00
Kspace  | 6.9141e-06 | 6.9141e-06 | 6.9141e-06 |   0.0 | 32.95
Neigh   | 0          | 0          | 0          |   0.0 |  0.00
Comm    | 0          | 0          | 0          |   0.0 |  0.00
Output  | 1.9073e-06 | 1.9073e-06 | 1.9073e-06 |   0.0 |  9.09
Modify  | 8.1062e-06 | 8.1062e-06 | 8.1062e-06 |   0.0 | 38.64
Other   |            | 1.907e-06  |            |       |  9.09

Nlocal:    4 ave 4 max 4 min
Histogram: 1 0 0 0 0 0 0 0 0 0
Nghost:    0 ave 0 max 0 min
Histogram: 1 0 0 0 0 0 0 0 0 0
Neighs:    6 ave 6 max 6 min
Histogram: 1 0 0 0 0 0 0 0 0 0

Total # of neighbors = 6
Ave neighs/atom = 1.5
Ave special neighs/atom = 1.5
Neighbor list builds = 0
Dangerous builds = 0
Setting atom values ...
  1 settings made for x
  1 settings made for y
  1 settings made for z
PPPM initialization ...
  using 12-bit tables for long-range coulomb (../kspace.cpp:321)
  G vector (1/distance) = 0.0299583
  grid = 2 2 2
  stencil order = 5
  estimated absolute RMS force accuracy = 0.00155756
  estimated relative force accuracy = 0.000108167
  using double precision FFTs
  3d grid and FFT values/proc = 343 8
Setting up Verlet run ...
  Unit style    : metal
  Current step  : 13
  Time step     : 1
Per MPI rank memory allocation (min/avg/max) = 9.869 | 9.869 | 9.869 Mbytes
Step Temp PotEng KinEng E_bond Press Density 
      13            0   -1.7925864            0  0.014032111    8.7344651 0.00064151289 
      14            0   -1.7925864            0  0.014032111    8.7344651 0.00064151289 
Loop time of 2.5034e-05 on 1 procs for 1 steps with 4 atoms

Performance: 3451313.006 ns/day, 0.000 hours/ns, 39945.752 timesteps/s
79.9% CPU use with 1 MPI tasks x no OpenMP threads

MPI task timing breakdown:
Section |  min time  |  avg time  |  max time  |%varavg| %total
---------------------------------------------------------------
Pair    | 1.9073e-06 | 1.9073e-06 | 1.9073e-06 |   0.0 |  7.62
Bond    | 0          | 0          | 0          |   0.0 |  0.00
Kspace  | 7.1526e-06 | 7.1526e-06 | 7.1526e-06 |   0.0 | 28.57
Neigh   | 0          | 0          | 0          |   0.0 |  0.00
Comm    | 9.5367e-07 | 9.5367e-07 | 9.5367e-07 |   0.0 |  3.81
Output  | 7.1526e-06 | 7.1526e-06 | 7.1526e-06 |   0.0 | 28.57
Modify  | 6.9141e-06 | 6.9141e-06 | 6.9141e-06 |   0.0 | 27.62
Other   |            | 9.537e-07  |            |       |  3.81

Nlocal:    4 ave 4 max 4 min
Histogram: 1 0 0 0 0 0 0 0 0 0
Nghost:    0 ave 0 max 0 min
Histogram: 1 0 0 0 0 0 0 0 0 0
Neighs:    6 ave 6 max 6 min
Histogram: 1 0 0 0 0 0 0 0 0 0

Total # of neighbors = 6
Ave neighs/atom = 1.5
Ave special neighs/atom = 1.5
Neighbor list builds = 0
Dangerous builds = 0
Setting atom values ...
  1 settings made for x
  1 settings made for y
  1 settings made for z
PPPM initialization ...
  using 12-bit tables for long-range coulomb (../kspace.cpp:321)
  G vector (1/distance) = 0.0299583
  grid = 2 2 2
  stencil order = 5
  estimated absolute RMS force accuracy = 0.00155756
  estimated relative force accuracy = 0.000108167
  using double precision FFTs
  3d grid and FFT values/proc = 343 8
Setting up Verlet run ...
  Unit style    : metal
  Current step  : 14
  Time step     : 1
Per MPI rank memory allocation (min/avg/max) = 9.869 | 9.869 | 9.869 Mbytes
Step Temp PotEng KinEng E_bond Press Density 
      14            0   -1.4649816            0  0.014032111    9.0868088 0.00064151289 
      15            0   -1.4649816            0  0.014032111    9.0868088 0.00064151289 
Loop time of 2.19345e-05 on 1 procs for 1 steps with 4 atoms

Performance: 3938998.539 ns/day, 0.000 hours/ns, 45590.261 timesteps/s
100.3% CPU use with 1 MPI tasks x no OpenMP threads

MPI task timing breakdown:
Section |  min time  |  avg time  |  max time  |%varavg| %total
---------------------------------------------------------------
Pair    | 2.1458e-06 | 2.1458e-06 | 2.1458e-06 |   0.0 |  9.78
Bond    | 9.5367e-07 | 9.5367e-07 | 9.5367e-07 |   0.0 |  4.35
Kspace  | 5.9605e-06 | 5.9605e-06 | 5.9605e-06 |   0.0 | 27.17
Neigh   | 0          | 0          | 0          |   0.0 |  0.00
Comm    | 0          | 0          | 0          |   0.0 |  0.00
Output  | 1.9073e-06 | 1.9073e-06 | 1.9073e-06 |   0.0 |  8.70
Modify  | 9.0599e-06 | 9.0599e-06 | 9.0599e-06 |   0.0 | 41.30
Other   |            | 1.907e-06  |            |       |  8.70

Nlocal:    4 ave 4 max 4 min
Histogram: 1 0 0 0 0 0 0 0 0 0
Nghost:    0 ave 0 max 0 min
Histogram: 1 0 0 0 0 0 0 0 0 0
Neighs:    6 ave 6 max 6 min
Histogram: 1 0 0 0 0 0 0 0 0 0

Total # of neighbors = 6
Ave neighs/atom = 1.5
Ave special neighs/atom = 1.5
Neighbor list builds = 0
Dangerous builds = 0
Setting atom values ...
  1 settings made for x
  1 settings made for y
  1 settings made for z
PPPM initialization ...
  using 12-bit tables for long-range coulomb (../kspace.cpp:321)
  G vector (1/distance) = 0.0299583
  grid = 2 2 2
  stencil order = 5
  estimated absolute RMS force accuracy = 0.00155756
  estimated relative force accuracy = 0.000108167
  using double precision FFTs
  3d grid and FFT values/proc = 343 8
Setting up Verlet run ...
  Unit style    : metal
  Current step  : 15
  Time step     : 1
Per MPI rank memory allocation (min/avg/max) = 9.869 | 9.869 | 9.869 Mbytes
Step Temp PotEng KinEng E_bond Press Density 
      15            0   -1.2296039            0  0.014032111    9.3364713 0.00064151289 
      16            0   -1.2296039            0  0.014032111    9.3364713 0.00064151289 
Loop time of 2.09808e-05 on 1 procs for 1 steps with 4 atoms

Performance: 4118043.927 ns/day, 0.000 hours/ns, 47662.545 timesteps/s
100.1% CPU use with 1 MPI tasks x no OpenMP threads

MPI task timing breakdown:
Section |  min time  |  avg time  |  max time  |%varavg| %total
---------------------------------------------------------------
Pair    | 2.1458e-06 | 2.1458e-06 | 2.1458e-06 |   0.0 | 10.23
Bond    | 0          | 0          | 0          |   0.0 |  0.00
Kspace  | 6.9141e-06 | 6.9141e-06 | 6.9141e-06 |   0.0 | 32.95
Neigh   | 0          | 0          | 0          |   0.0 |  0.00
Comm    | 0          | 0          | 0          |   0.0 |  0.00
Output  | 3.0994e-06 | 3.0994e-06 | 3.0994e-06 |   0.0 | 14.77
Modify  | 6.9141e-06 | 6.9141e-06 | 6.9141e-06 |   0.0 | 32.95
Other   |            | 1.907e-06  |            |       |  9.09

Nlocal:    4 ave 4 max 4 min
Histogram: 1 0 0 0 0 0 0 0 0 0
Nghost:    0 ave 0 max 0 min
Histogram: 1 0 0 0 0 0 0 0 0 0
Neighs:    6 ave 6 max 6 min
Histogram: 1 0 0 0 0 0 0 0 0 0

Total # of neighbors = 6
Ave neighs/atom = 1.5
Ave special neighs/atom = 1.5
Neighbor list builds = 0
Dangerous builds = 0
Setting atom values ...
  1 settings made for x
  1 settings made for y
  1 settings made for z
PPPM initialization ...
  using 12-bit tables for long-range coulomb (../kspace.cpp:321)
  G vector (1/distance) = 0.0299583
  grid = 2 2 2
  stencil order = 5
  estimated absolute RMS force accuracy = 0.00155756
  estimated relative force accuracy = 0.000108167
  using double precision FFTs
  3d grid and FFT values/proc = 343 8
Setting up Verlet run ...
  Unit style    : metal
  Current step  : 16
  Time step     : 1
Per MPI rank memory allocation (min/avg/max) = 9.869 | 9.869 | 9.869 Mbytes
Step Temp PotEng KinEng E_bond Press Density 
      16            0   -1.0556223            0  0.014032111    9.5209649 0.00064151289 
      17            0   -1.0556223            0  0.014032111    9.5209649 0.00064151289 
Loop time of 2.00272e-05 on 1 procs for 1 steps with 4 atoms

Performance: 4314141.257 ns/day, 0.000 hours/ns, 49932.190 timesteps/s
104.9% CPU use with 1 MPI tasks x no OpenMP threads

MPI task timing breakdown:
Section |  min time  |  avg time  |  max time  |%varavg| %total
---------------------------------------------------------------
Pair    | 2.1458e-06 | 2.1458e-06 | 2.1458e-06 |   0.0 | 10.71
Bond    | 9.5367e-07 | 9.5367e-07 | 9.5367e-07 |   0.0 |  4.76
Kspace  | 5.9605e-06 | 5.9605e-06 | 5.9605e-06 |   0.0 | 29.76
Neigh   | 0          | 0          | 0          |   0.0 |  0.00
Comm    | 0          | 0          | 0          |   0.0 |  0.00
Output  | 1.9073e-06 | 1.9073e-06 | 1.9073e-06 |   0.0 |  9.52
Modify  | 8.1062e-06 | 8.1062e-06 | 8.1062e-06 |   0.0 | 40.48
Other   |            | 9.537e-07  |            |       |  4.76

Nlocal:    4 ave 4 max 4 min
Histogram: 1 0 0 0 0 0 0 0 0 0
Nghost:    0 ave 0 max 0 min
Histogram: 1 0 0 0 0 0 0 0 0 0
Neighs:    6 ave 6 max 6 min
Histogram: 1 0 0 0 0 0 0 0 0 0

Total # of neighbors = 6
Ave neighs/atom = 1.5
Ave special neighs/atom = 1.5
Neighbor list builds = 0
Dangerous builds = 0
Setting atom values ...
  1 settings made for x
  1 settings made for y
  1 settings made for z
PPPM initialization ...
  using 12-bit tables for long-range coulomb (../kspace.cpp:321)
  G vector (1/distance) = 0.0299583
  grid = 2 2 2
  stencil order = 5
  estimated absolute RMS force accuracy = 0.00155756
  estimated relative force accuracy = 0.000108167
  using double precision FFTs
  3d grid and FFT values/proc = 343 8
Setting up Verlet run ...
  Unit style    : metal
  Current step  : 17
  Time step     : 1
Per MPI rank memory allocation (min/avg/max) = 9.869 | 9.869 | 9.869 Mbytes
Step Temp PotEng KinEng E_bond Press Density 
      17            0   -0.9231818            0  0.014032111    9.6621183 0.00064151289 
      18            0   -0.9231818            0  0.014032111    9.6621183 0.00064151289 
Loop time of 2.09808e-05 on 1 procs for 1 steps with 4 atoms

Performance: 4118043.927 ns/day, 0.000 hours/ns, 47662.545 timesteps/s
100.1% CPU use with 1 MPI tasks x no OpenMP threads

MPI task timing breakdown:
Section |  min time  |  avg time  |  max time  |%varavg| %total
---------------------------------------------------------------
Pair    | 2.1458e-06 | 2.1458e-06 | 2.1458e-06 |   0.0 | 10.23
Bond    | 9.5367e-07 | 9.5367e-07 | 9.5367e-07 |   0.0 |  4.55
Kspace  | 5.9605e-06 | 5.9605e-06 | 5.9605e-06 |   0.0 | 28.41
Neigh   | 0          | 0          | 0          |   0.0 |  0.00
Comm    | 0          | 0          | 0          |   0.0 |  0.00
Output  | 1.9073e-06 | 1.9073e-06 | 1.9073e-06 |   0.0 |  9.09
Modify  | 8.1062e-06 | 8.1062e-06 | 8.1062e-06 |   0.0 | 38.64
Other   |            | 1.907e-06  |            |       |  9.09

Nlocal:    4 ave 4 max 4 min
Histogram: 1 0 0 0 0 0 0 0 0 0
Nghost:    1 ave 1 max 1 min
Histogram: 1 0 0 0 0 0 0 0 0 0
Neighs:    6 ave 6 max 6 min
Histogram: 1 0 0 0 0 0 0 0 0 0

Total # of neighbors = 6
Ave neighs/atom = 1.5
Ave special neighs/atom = 1.5
Neighbor list builds = 0
Dangerous builds = 0
Setting atom values ...
  1 settings made for x
  1 settings made for y
  1 settings made for z
PPPM initialization ...
  using 12-bit tables for long-range coulomb (../kspace.cpp:321)
  G vector (1/distance) = 0.0299583
  grid = 2 2 2
  stencil order = 5
  estimated absolute RMS force accuracy = 0.00155756
  estimated relative force accuracy = 0.000108167
  using double precision FFTs
  3d grid and FFT values/proc = 343 8
Setting up Verlet run ...
  Unit style    : metal
  Current step  : 18
  Time step     : 1
Per MPI rank memory allocation (min/avg/max) = 9.869 | 9.869 | 9.869 Mbytes
Step Temp PotEng KinEng E_bond Press Density 
      18            0  -0.81964632            0  0.014032111    9.7733382 0.00064151289 
      19            0  -0.81964632            0  0.014032111    9.7733382 0.00064151289 
Loop time of 2.09808e-05 on 1 procs for 1 steps with 4 atoms

Performance: 4118043.927 ns/day, 0.000 hours/ns, 47662.545 timesteps/s
100.1% CPU use with 1 MPI tasks x no OpenMP threads

MPI task timing breakdown:
Section |  min time  |  avg time  |  max time  |%varavg| %total
---------------------------------------------------------------
Pair    | 1.9073e-06 | 1.9073e-06 | 1.9073e-06 |   0.0 |  9.09
Bond    | 0          | 0          | 0          |   0.0 |  0.00
Kspace  | 6.9141e-06 | 6.9141e-06 | 6.9141e-06 |   0.0 | 32.95
Neigh   | 0          | 0          | 0          |   0.0 |  0.00
Comm    | 0          | 0          | 0          |   0.0 |  0.00
Output  | 1.9073e-06 | 1.9073e-06 | 1.9073e-06 |   0.0 |  9.09
Modify  | 8.1062e-06 | 8.1062e-06 | 8.1062e-06 |   0.0 | 38.64
Other   |            | 2.146e-06  |            |       | 10.23

Nlocal:    4 ave 4 max 4 min
Histogram: 1 0 0 0 0 0 0 0 0 0
Nghost:    1 ave 1 max 1 min
Histogram: 1 0 0 0 0 0 0 0 0 0
Neighs:    6 ave 6 max 6 min
Histogram: 1 0 0 0 0 0 0 0 0 0

Total # of neighbors = 6
Ave neighs/atom = 1.5
Ave special neighs/atom = 1.5
Neighbor list builds = 0
Dangerous builds = 0
Setting atom values ...
  1 settings made for x
  1 settings made for y
  1 settings made for z
PPPM initialization ...
  using 12-bit tables for long-range coulomb (../kspace.cpp:321)
  G vector (1/distance) = 0.0299583
  grid = 2 2 2
  stencil order = 5
  estimated absolute RMS force accuracy = 0.00155756
  estimated relative force accuracy = 0.000108167
  using double precision FFTs
  3d grid and FFT values/proc = 343 8
Setting up Verlet run ...
  Unit style    : metal
  Current step  : 19
  Time step     : 1
Per MPI rank memory allocation (min/avg/max) = 9.869 | 9.869 | 9.869 Mbytes
Step Temp PotEng KinEng E_bond Press Density 
      19            0  -0.73683824            0  0.014032111    9.8631859 0.00064151289 
      20            0  -0.73683824            0  0.014032111    9.8631859 0.00064151289 
Loop time of 2.21729e-05 on 1 procs for 1 steps with 4 atoms

Performance: 3896643.716 ns/day, 0.000 hours/ns, 45100.043 timesteps/s
103.7% CPU use with 1 MPI tasks x no OpenMP threads

MPI task timing breakdown:
Section |  min time  |  avg time  |  max time  |%varavg| %total
---------------------------------------------------------------
Pair    | 3.0994e-06 | 3.0994e-06 | 3.0994e-06 |   0.0 | 13.98
Bond    | 0          | 0          | 0          |   0.0 |  0.00
Kspace  | 6.9141e-06 | 6.9141e-06 | 6.9141e-06 |   0.0 | 31.18
Neigh   | 0          | 0          | 0          |   0.0 |  0.00
Comm    | 0          | 0          | 0          |   0.0 |  0.00
Output  | 2.861e-06  | 2.861e-06  | 2.861e-06  |   0.0 | 12.90
Modify  | 8.1062e-06 | 8.1062e-06 | 8.1062e-06 |   0.0 | 36.56
Other   |            | 1.192e-06  |            |       |  5.38

Nlocal:    4 ave 4 max 4 min
Histogram: 1 0 0 0 0 0 0 0 0 0
Nghost:    1 ave 1 max 1 min
Histogram: 1 0 0 0 0 0 0 0 0 0
Neighs:    6 ave 6 max 6 min
Histogram: 1 0 0 0 0 0 0 0 0 0

Total # of neighbors = 6
Ave neighs/atom = 1.5
Ave special neighs/atom = 1.5
Neighbor list builds = 0
Dangerous builds = 0
Setting atom values ...
  1 settings made for x
  1 settings made for y
  1 settings made for z
PPPM initialization ...
  using 12-bit tables for long-range coulomb (../kspace.cpp:321)
  G vector (1/distance) = 0.0299583
  grid = 2 2 2
  stencil order = 5
  estimated absolute RMS force accuracy = 0.00155756
  estimated relative force accuracy = 0.000108167
  using double precision FFTs
  3d grid and FFT values/proc = 343 8
Setting up Verlet run ...
  Unit style    : metal
  Current step  : 20
  Time step     : 1
Per MPI rank memory allocation (min/avg/max) = 9.869 | 9.869 | 9.869 Mbytes
Step Temp PotEng KinEng E_bond Press Density 
      20            0  -0.61336356            0  0.014032111     9.999586 0.00064151289 
      21            0  -0.61336356            0  0.014032111     9.999586 0.00064151289 
Loop time of 2.09808e-05 on 1 procs for 1 steps with 4 atoms

Performance: 4118043.927 ns/day, 0.000 hours/ns, 47662.545 timesteps/s
100.1% CPU use with 1 MPI tasks x no OpenMP threads

MPI task timing breakdown:
Section |  min time  |  avg time  |  max time  |%varavg| %total
---------------------------------------------------------------
Pair    | 1.9073e-06 | 1.9073e-06 | 1.9073e-06 |   0.0 |  9.09
Bond    | 0          | 0          | 0          |   0.0 |  0.00
Kspace  | 7.1526e-06 | 7.1526e-06 | 7.1526e-06 |   0.0 | 34.09
Neigh   | 0          | 0          | 0          |   0.0 |  0.00
Comm    | 0          | 0          | 0          |   0.0 |  0.00
Output  | 3.0994e-06 | 3.0994e-06 | 3.0994e-06 |   0.0 | 14.77
Modify  | 7.8678e-06 | 7.8678e-06 | 7.8678e-06 |   0.0 | 37.50
Other   |            | 9.537e-07  |            |       |  4.55

Nlocal:    4 ave 4 max 4 min
Histogram: 1 0 0 0 0 0 0 0 0 0
Nghost:    1 ave 1 max 1 min
Histogram: 1 0 0 0 0 0 0 0 0 0
Neighs:    6 ave 6 max 6 min
Histogram: 1 0 0 0 0 0 0 0 0 0

Total # of neighbors = 6
Ave neighs/atom = 1.5
Ave special neighs/atom = 1.5
Neighbor list builds = 0
Dangerous builds = 0
Setting atom values ...
  1 settings made for x
  1 settings made for y
  1 settings made for z
PPPM initialization ...
  using 12-bit tables for long-range coulomb (../kspace.cpp:321)
  G vector (1/distance) = 0.0299583
  grid = 2 2 2
  stencil order = 5
  estimated absolute RMS force accuracy = 0.00155756
  estimated relative force accuracy = 0.000108167
  using double precision FFTs
  3d grid and FFT values/proc = 343 8
Setting up Verlet run ...
  Unit style    : metal
  Current step  : 21
  Time step     : 1
Per MPI rank memory allocation (min/avg/max) = 9.869 | 9.869 | 9.869 Mbytes
Step Temp PotEng KinEng E_bond Press Density 
      21            0  -0.49206816            0  0.014032111    10.138656 0.00064151289 
      22            0  -0.49206816            0  0.014032111    10.138656 0.00064151289 
Loop time of 2.21729e-05 on 1 procs for 1 steps with 4 atoms

Performance: 3896643.716 ns/day, 0.000 hours/ns, 45100.043 timesteps/s
99.2% CPU use with 1 MPI tasks x no OpenMP threads

MPI task timing breakdown:
Section |  min time  |  avg time  |  max time  |%varavg| %total
---------------------------------------------------------------
Pair    | 2.1458e-06 | 2.1458e-06 | 2.1458e-06 |   0.0 |  9.68
Bond    | 0          | 0          | 0          |   0.0 |  0.00
Kspace  | 6.9141e-06 | 6.9141e-06 | 6.9141e-06 |   0.0 | 31.18
Neigh   | 0          | 0          | 0          |   0.0 |  0.00
Comm    | 9.5367e-07 | 9.5367e-07 | 9.5367e-07 |   0.0 |  4.30
Output  | 2.861e-06  | 2.861e-06  | 2.861e-06  |   0.0 | 12.90
Modify  | 8.1062e-06 | 8.1062e-06 | 8.1062e-06 |   0.0 | 36.56
Other   |            | 1.192e-06  |            |       |  5.38

Nlocal:    4 ave 4 max 4 min
Histogram: 1 0 0 0 0 0 0 0 0 0
Nghost:    1 ave 1 max 1 min
Histogram: 1 0 0 0 0 0 0 0 0 0
Neighs:    6 ave 6 max 6 min
Histogram: 1 0 0 0 0 0 0 0 0 0

Total # of neighbors = 6
Ave neighs/atom = 1.5
Ave special neighs/atom = 1.5
Neighbor list builds = 0
Dangerous builds = 0
Setting atom values ...
  1 settings made for x
  1 settings made for y
  1 settings made for z
PPPM initialization ...
  using 12-bit tables for long-range coulomb (../kspace.cpp:321)
  G vector (1/distance) = 0.0299583
  grid = 2 2 2
  stencil order = 5
  estimated absolute RMS force accuracy = 0.00155756
  estimated relative force accuracy = 0.000108167
  using double precision FFTs
  3d grid and FFT values/proc = 343 8
Setting up Verlet run ...
  Unit style    : metal
  Current step  : 22
  Time step     : 1
Per MPI rank memory allocation (min/avg/max) = 9.869 | 9.869 | 9.869 Mbytes
Step Temp PotEng KinEng E_bond Press Density 
      22            0   -0.3756068            0  0.014032111    10.281853 0.00064151289 
      23            0   -0.3756068            0  0.014032111    10.281853 0.00064151289 
Loop time of 2.28882e-05 on 1 procs for 1 steps with 4 atoms

Performance: 3774873.600 ns/day, 0.000 hours/ns, 43690.667 timesteps/s
100.5% CPU use with 1 MPI tasks x no OpenMP threads

MPI task timing breakdown:
Section |  min time  |  avg time  |  max time  |%varavg| %total
---------------------------------------------------------------
Pair    | 1.9073e-06 | 1.9073e-06 | 1.9073e-06 |   0.0 |  8.33
Bond    | 0          | 0          | 0          |   0.0 |  0.00
Kspace  | 7.1526e-06 | 7.1526e-06 | 7.1526e-06 |   0.0 | 31.25
Neigh   | 0          | 0          | 0          |   0.0 |  0.00
Comm    | 9.5367e-07 | 9.5367e-07 | 9.5367e-07 |   0.0 |  4.17
Output  | 3.0994e-06 | 3.0994e-06 | 3.0994e-06 |   0.0 | 13.54
Modify  | 8.8215e-06 | 8.8215e-06 | 8.8215e-06 |   0.0 | 38.54
Other   |            | 9.537e-07  |            |       |  4.17

Nlocal:    4 ave 4 max 4 min
Histogram: 1 0 0 0 0 0 0 0 0 0
Nghost:    1 ave 1 max 1 min
Histogram: 1 0 0 0 0 0 0 0 0 0
Neighs:    6 ave 6 max 6 min
Histogram: 1 0 0 0 0 0 0 0 0 0

Total # of neighbors = 6
Ave neighs/atom = 1.5
Ave special neighs/atom = 1.5
Neighbor list builds = 0
Dangerous builds = 0
Setting atom values ...
  1 settings made for x
  1 settings made for y
  1 settings made for z
PPPM initialization ...
  using 12-bit tables for long-range coulomb (../kspace.cpp:321)
  G vector (1/distance) = 0.0299583
  grid = 2 2 2
  stencil order = 5
  estimated absolute RMS force accuracy = 0.00155756
  estimated relative force accuracy = 0.000108167
  using double precision FFTs
  3d grid and FFT values/proc = 343 8
Setting up Verlet run ...
  Unit style    : metal
  Current step  : 23
  Time step     : 1
Per MPI rank memory allocation (min/avg/max) = 9.869 | 9.869 | 9.869 Mbytes
Step Temp PotEng KinEng E_bond Press Density 
      23            0  -0.23618392            0  0.014032111    10.548731 0.00064151289 
      24            0  -0.23618392            0  0.014032111    10.548731 0.00064151289 
Loop time of 2.00272e-05 on 1 procs for 1 steps with 4 atoms

Performance: 4314141.257 ns/day, 0.000 hours/ns, 49932.190 timesteps/s
104.9% CPU use with 1 MPI tasks x no OpenMP threads

MPI task timing breakdown:
Section |  min time  |  avg time  |  max time  |%varavg| %total
---------------------------------------------------------------
Pair    | 2.1458e-06 | 2.1458e-06 | 2.1458e-06 |   0.0 | 10.71
Bond    | 0          | 0          | 0          |   0.0 |  0.00
Kspace  | 5.9605e-06 | 5.9605e-06 | 5.9605e-06 |   0.0 | 29.76
Neigh   | 0          | 0          | 0          |   0.0 |  0.00
Comm    | 9.5367e-07 | 9.5367e-07 | 9.5367e-07 |   0.0 |  4.76
Output  | 1.9073e-06 | 1.9073e-06 | 1.9073e-06 |   0.0 |  9.52
Modify  | 7.1526e-06 | 7.1526e-06 | 7.1526e-06 |   0.0 | 35.71
Other   |            | 1.907e-06  |            |       |  9.52

Nlocal:    4 ave 4 max 4 min
Histogram: 1 0 0 0 0 0 0 0 0 0
Nghost:    1 ave 1 max 1 min
Histogram: 1 0 0 0 0 0 0 0 0 0
Neighs:    6 ave 6 max 6 min
Histogram: 1 0 0 0 0 0 0 0 0 0

Total # of neighbors = 6
Ave neighs/atom = 1.5
Ave special neighs/atom = 1.5
Neighbor list builds = 0
Dangerous builds = 0
Setting atom values ...
  1 settings made for x
  1 settings made for y
  1 settings made for z
PPPM initialization ...
  using 12-bit tables for long-range coulomb (../kspace.cpp:321)
  G vector (1/distance) = 0.0299583
  grid = 2 2 2
  stencil order = 5
  estimated absolute RMS force accuracy = 0.00155756
  estimated relative force accuracy = 0.000108167
  using double precision FFTs
  3d grid and FFT values/proc = 343 8
Setting up Verlet run ...
  Unit style    : metal
  Current step  : 24
  Time step     : 1
Per MPI rank memory allocation (min/avg/max) = 9.869 | 9.869 | 9.869 Mbytes
Step Temp PotEng KinEng E_bond Press Density 
      24            0   -2.8134378            0  0.014032111    6.7188092 0.00064151289 
      25            0   -2.8134378            0  0.014032111    6.7188092 0.00064151289 
Loop time of 2.09808e-05 on 1 procs for 1 steps with 4 atoms

Performance: 4118043.927 ns/day, 0.000 hours/ns, 47662.545 timesteps/s
100.1% CPU use with 1 MPI tasks x no OpenMP threads

MPI task timing breakdown:
Section |  min time  |  avg time  |  max time  |%varavg| %total
---------------------------------------------------------------
Pair    | 1.9073e-06 | 1.9073e-06 | 1.9073e-06 |   0.0 |  9.09
Bond    | 1.1921e-06 | 1.1921e-06 | 1.1921e-06 |   0.0 |  5.68
Kspace  | 5.9605e-06 | 5.9605e-06 | 5.9605e-06 |   0.0 | 28.41
Neigh   | 0          | 0          | 0          |   0.0 |  0.00
Comm    | 0          | 0          | 0          |   0.0 |  0.00
Output  | 2.1458e-06 | 2.1458e-06 | 2.1458e-06 |   0.0 | 10.23
Modify  | 7.8678e-06 | 7.8678e-06 | 7.8678e-06 |   0.0 | 37.50
Other   |            | 1.907e-06  |            |       |  9.09

Nlocal:    4 ave 4 max 4 min
Histogram: 1 0 0 0 0 0 0 0 0 0
Nghost:    0 ave 0 max 0 min
Histogram: 1 0 0 0 0 0 0 0 0 0
Neighs:    6 ave 6 max 6 min
Histogram: 1 0 0 0 0 0 0 0 0 0

Total # of neighbors = 6
Ave neighs/atom = 1.5
Ave special neighs/atom = 1.5
Neighbor list builds = 0
Dangerous builds = 0
Setting atom values ...
  1 settings made for x
  1 settings made for y
  1 settings made for z
PPPM initialization ...
  using 12-bit tables for long-range coulomb (../kspace.cpp:321)
  G vector (1/distance) = 0.0299583
  grid = 2 2 2
  stencil order = 5
  estimated absolute RMS force accuracy = 0.00155756
  estimated relative force accuracy = 0.000108167
  using double precision FFTs
  3d grid and FFT values/proc = 343 8
Setting up Verlet run ...
  Unit style    : metal
  Current step  : 25
  Time step     : 1
Per MPI rank memory allocation (min/avg/max) = 9.869 | 9.869 | 9.869 Mbytes
Step Temp PotEng KinEng E_bond Press Density 
      25            0   -2.0516446            0  0.014032111    8.2238678 0.00064151289 
      26            0   -2.0516446            0  0.014032111    8.2238678 0.00064151289 
Loop time of 1.97887e-05 on 1 procs for 1 steps with 4 atoms

Performance: 4366118.863 ns/day, 0.000 hours/ns, 50533.783 timesteps/s
101.1% CPU use with 1 MPI tasks x no OpenMP threads

MPI task timing breakdown:
Section |  min time  |  avg time  |  max time  |%varavg| %total
---------------------------------------------------------------
Pair    | 9.5367e-07 | 9.5367e-07 | 9.5367e-07 |   0.0 |  4.82
Bond    | 9.5367e-07 | 9.5367e-07 | 9.5367e-07 |   0.0 |  4.82
Kspace  | 7.1526e-06 | 7.1526e-06 | 7.1526e-06 |   0.0 | 36.14
Neigh   | 0          | 0          | 0          |   0.0 |  0.00
Comm    | 9.5367e-07 | 9.5367e-07 | 9.5367e-07 |   0.0 |  4.82
Output  | 2.861e-06  | 2.861e-06  | 2.861e-06  |   0.0 | 14.46
Modify  | 6.9141e-06 | 6.9141e-06 | 6.9141e-06 |   0.0 | 34.94
Other   |            | 0          |            |       |  0.00

Nlocal:    4 ave 4 max 4 min
Histogram: 1 0 0 0 0 0 0 0 0 0
Nghost:    0 ave 0 max 0 min
Histogram: 1 0 0 0 0 0 0 0 0 0
Neighs:    6 ave 6 max 6 min
Histogram: 1 0 0 0 0 0 0 0 0 0

Total # of neighbors = 6
Ave neighs/atom = 1.5
Ave special neighs/atom = 1.5
Neighbor list builds = 0
Dangerous builds = 0
Setting atom values ...
  1 settings made for x
  1 settings made for y
  1 settings made for z
PPPM initialization ...
  using 12-bit tables for long-range coulomb (../kspace.cpp:321)
  G vector (1/distance) = 0.0299583
  grid = 2 2 2
  stencil order = 5
  estimated absolute RMS force accuracy = 0.00155756
  estimated relative force accuracy = 0.000108167
  using double precision FFTs
  3d grid and FFT values/proc = 343 8
Setting up Verlet run ...
  Unit style    : metal
  Current step  : 26
  Time step     : 1
Per MPI rank memory allocation (min/avg/max) = 9.869 | 9.869 | 9.869 Mbytes
Step Temp PotEng KinEng E_bond Press Density 
      26            0   -1.5700309            0  0.014032111    8.9509998 0.00064151289 
      27            0   -1.5700309            0  0.014032111    8.9509998 0.00064151289 
Loop time of 2.00272e-05 on 1 procs for 1 steps with 4 atoms

Performance: 4314141.257 ns/day, 0.000 hours/ns, 49932.190 timesteps/s
99.9% CPU use with 1 MPI tasks x no OpenMP threads

MPI task timing breakdown:
Section |  min time  |  avg time  |  max time  |%varavg| %total
---------------------------------------------------------------
Pair    | 9.5367e-07 | 9.5367e-07 | 9.5367e-07 |   0.0 |  4.76
Bond    | 9.5367e-07 | 9.5367e-07 | 9.5367e-07 |   0.0 |  4.76
Kspace  | 5.9605e-06 | 5.9605e-06 | 5.9605e-06 |   0.0 | 29.76
Neigh   | 0          | 0          | 0          |   0.0 |  0.00
Comm    | 0          | 0          | 0          |   0.0 |  0.00
Output  | 1.9073e-06 | 1.9073e-06 | 1.9073e-06 |   0.0 |  9.52
Modify  | 8.1062e-06 | 8.1062e-06 | 8.1062e-06 |   0.0 | 40.48
Other   |            | 2.146e-06  |            |       | 10.71

Nlocal:    4 ave 4 max 4 min
Histogram: 1 0 0 0 0 0 0 0 0 0
Nghost:    0 ave 0 max 0 min
Histogram: 1 0 0 0 0 0 0 0 0 0
Neighs:    6 ave 6 max 6 min
Histogram: 1 0 0 0 0 0 0 0 0 0

Total # of neighbors = 6
Ave neighs/atom = 1.5
Ave special neighs/atom = 1.5
Neighbor list builds = 0
Dangerous builds = 0
Setting atom values ...
  1 settings made for x
  1 settings made for y
  1 settings made for z
PPPM initialization ...
  using 12-bit tables for long-range coulomb (../kspace.cpp:321)
  G vector (1/distance) = 0.0299583
  grid = 2 2 2
  stencil order = 5
  estimated absolute RMS force accuracy = 0.00155756
  estimated relative force accuracy = 0.000108167
  using double precision FFTs
  3d grid and FFT values/proc = 343 8
Setting up Verlet run ...
  Unit style    : metal
  Current step  : 27
  Time step     : 1
Per MPI rank memory allocation (min/avg/max) = 9.869 | 9.869 | 9.869 Mbytes
Step Temp PotEng KinEng E_bond Press Density 
      27            0   -1.2716867            0  0.014032111    9.2903811 0.00064151289 
      28            0   -1.2716867            0  0.014032111    9.2903811 0.00064151289 
Loop time of 2.19345e-05 on 1 procs for 1 steps with 4 atoms

Performance: 3938998.539 ns/day, 0.000 hours/ns, 45590.261 timesteps/s
100.3% CPU use with 1 MPI tasks x no OpenMP threads

MPI task timing breakdown:
Section |  min time  |  avg time  |  max time  |%varavg| %total
---------------------------------------------------------------
Pair    | 1.9073e-06 | 1.9073e-06 | 1.9073e-06 |   0.0 |  8.70
Bond    | 0          | 0          | 0          |   0.0 |  0.00
Kspace  | 6.9141e-06 | 6.9141e-06 | 6.9141e-06 |   0.0 | 31.52
Neigh   | 0          | 0          | 0          |   0.0 |  0.00
Comm    | 0          | 0          | 0          |   0.0 |  0.00
Output  | 3.0994e-06 | 3.0994e-06 | 3.0994e-06 |   0.0 | 14.13
Modify  | 8.1062e-06 | 8.1062e-06 | 8.1062e-06 |   0.0 | 36.96
Other   |            | 1.907e-06  |            |       |  8.70

Nlocal:    4 ave 4 max 4 min
Histogram: 1 0 0 0 0 0 0 0 0 0
Nghost:    0 ave 0 max 0 min
Histogram: 1 0 0 0 0 0 0 0 0 0
Neighs:    6 ave 6 max 6 min
Histogram: 1 0 0 0 0 0 0 0 0 0

Total # of neighbors = 6
Ave neighs/atom = 1.5
Ave special neighs/atom = 1.5
Neighbor list builds = 0
Dangerous builds = 0
Setting atom values ...
  1 settings made for x
  1 settings made for y
  1 settings made for z
PPPM initialization ...
  using 12-bit tables for long-range coulomb (../kspace.cpp:321)
  G vector (1/distance) = 0.0299583
  grid = 2 2 2
  stencil order = 5
  estimated absolute RMS force accuracy = 0.00155756
  estimated relative force accuracy = 0.000108167
  using double precision FFTs
  3d grid and FFT values/proc = 343 8
Setting up Verlet run ...
  Unit style    : metal
  Current step  : 28
  Time step     : 1
Per MPI rank memory allocation (min/avg/max) = 9.869 | 9.869 | 9.869 Mbytes
Step Temp PotEng KinEng E_bond Press Density 
      28            0   -1.0695204            0  0.014032111    9.5076172 0.00064151289 
      29            0   -1.0695204            0  0.014032111    9.5076172 0.00064151289 
Loop time of 2.09808e-05 on 1 procs for 1 steps with 4 atoms

Performance: 4118043.927 ns/day, 0.000 hours/ns, 47662.545 timesteps/s
100.1% CPU use with 1 MPI tasks x no OpenMP threads

MPI task timing breakdown:
Section |  min time  |  avg time  |  max time  |%varavg| %total
---------------------------------------------------------------
Pair    | 2.1458e-06 | 2.1458e-06 | 2.1458e-06 |   0.0 | 10.23
Bond    | 0          | 0          | 0          |   0.0 |  0.00
Kspace  | 6.9141e-06 | 6.9141e-06 | 6.9141e-06 |   0.0 | 32.95
Neigh   | 0          | 0          | 0          |   0.0 |  0.00
Comm    | 0          | 0          | 0          |   0.0 |  0.00
Output  | 1.9073e-06 | 1.9073e-06 | 1.9073e-06 |   0.0 |  9.09
Modify  | 8.1062e-06 | 8.1062e-06 | 8.1062e-06 |   0.0 | 38.64
Other   |            | 1.907e-06  |            |       |  9.09

Nlocal:    4 ave 4 max 4 min
Histogram: 1 0 0 0 0 0 0 0 0 0
Nghost:    0 ave 0 max 0 min
Histogram: 1 0 0 0 0 0 0 0 0 0
Neighs:    6 ave 6 max 6 min
Histogram: 1 0 0 0 0 0 0 0 0 0

Total # of neighbors = 6
Ave neighs/atom = 1.5
Ave special neighs/atom = 1.5
Neighbor list builds = 0
Dangerous builds = 0
Setting atom values ...
  1 settings made for x
  1 settings made for y
  1 settings made for z
PPPM initialization ...
  using 12-bit tables for long-range coulomb (../kspace.cpp:321)
  G vector (1/distance) = 0.0299583
  grid = 2 2 2
  stencil order = 5
  estimated absolute RMS force accuracy = 0.00155756
  estimated relative force accuracy = 0.000108167
  using double precision FFTs
  3d grid and FFT values/proc = 343 8
Setting up Verlet run ...
  Unit style    : metal
  Current step  : 29
  Time step     : 1
Per MPI rank memory allocation (min/avg/max) = 9.869 | 9.869 | 9.869 Mbytes
Step Temp PotEng KinEng E_bond Press Density 
      29            0  -0.92392093            0  0.014032111     9.663271 0.00064151289 
      30            0  -0.92392093            0  0.014032111     9.663271 0.00064151289 
Loop time of 3.69549e-05 on 1 procs for 1 steps with 4 atoms

Performance: 2337986.230 ns/day, 0.000 hours/ns, 27060.026 timesteps/s
100.1% CPU use with 1 MPI tasks x no OpenMP threads

MPI task timing breakdown:
Section |  min time  |  avg time  |  max time  |%varavg| %total
---------------------------------------------------------------
Pair    | 1.9073e-06 | 1.9073e-06 | 1.9073e-06 |   0.0 |  5.16
Bond    | 0          | 0          | 0          |   0.0 |  0.00
Kspace  | 2.3127e-05 | 2.3127e-05 | 2.3127e-05 |   0.0 | 62.58
Neigh   | 0          | 0          | 0          |   0.0 |  0.00
Comm    | 0          | 0          | 0          |   0.0 |  0.00
Output  | 2.1458e-06 | 2.1458e-06 | 2.1458e-06 |   0.0 |  5.81
Modify  | 7.8678e-06 | 7.8678e-06 | 7.8678e-06 |   0.0 | 21.29
Other   |            | 1.907e-06  |            |       |  5.16

Nlocal:    4 ave 4 max 4 min
Histogram: 1 0 0 0 0 0 0 0 0 0
Nghost:    0 ave 0 max 0 min
Histogram: 1 0 0 0 0 0 0 0 0 0
Neighs:    6 ave 6 max 6 min
Histogram: 1 0 0 0 0 0 0 0 0 0

Total # of neighbors = 6
Ave neighs/atom = 1.5
Ave special neighs/atom = 1.5
Neighbor list builds = 0
Dangerous builds = 0
Setting atom values ...
  1 settings made for x
  1 settings made for y
  1 settings made for z
PPPM initialization ...
  using 12-bit tables for long-range coulomb (../kspace.cpp:321)
  G vector (1/distance) = 0.0299583
  grid = 2 2 2
  stencil order = 5
  estimated absolute RMS force accuracy = 0.00155756
  estimated relative force accuracy = 0.000108167
  using double precision FFTs
  3d grid and FFT values/proc = 343 8
Setting up Verlet run ...
  Unit style    : metal
  Current step  : 30
  Time step     : 1
Per MPI rank memory allocation (min/avg/max) = 9.869 | 9.869 | 9.869 Mbytes
Step Temp PotEng KinEng E_bond Press Density 
      30            0  -0.81419213            0  0.014032111    9.7812949 0.00064151289 
      31            0  -0.81419213            0  0.014032111    9.7812949 0.00064151289 
Loop time of 2.09808e-05 on 1 procs for 1 steps with 4 atoms

Performance: 4118043.927 ns/day, 0.000 hours/ns, 47662.545 timesteps/s
100.1% CPU use with 1 MPI tasks x no OpenMP threads

MPI task timing breakdown:
Section |  min time  |  avg time  |  max time  |%varavg| %total
---------------------------------------------------------------
Pair    | 1.9073e-06 | 1.9073e-06 | 1.9073e-06 |   0.0 |  9.09
Bond    | 0          | 0          | 0          |   0.0 |  0.00
Kspace  | 6.9141e-06 | 6.9141e-06 | 6.9141e-06 |   0.0 | 32.95
Neigh   | 0          | 0          | 0          |   0.0 |  0.00
Comm    | 1.1921e-06 | 1.1921e-06 | 1.1921e-06 |   0.0 |  5.68
Output  | 2.861e-06  | 2.861e-06  | 2.861e-06  |   0.0 | 13.64
Modify  | 7.1526e-06 | 7.1526e-06 | 7.1526e-06 |   0.0 | 34.09
Other   |            | 9.537e-07  |            |       |  4.55

Nlocal:    4 ave 4 max 4 min
Histogram: 1 0 0 0 0 0 0 0 0 0
Nghost:    1 ave 1 max 1 min
Histogram: 1 0 0 0 0 0 0 0 0 0
Neighs:    6 ave 6 max 6 min
Histogram: 1 0 0 0 0 0 0 0 0 0

Total # of neighbors = 6
Ave neighs/atom = 1.5
Ave special neighs/atom = 1.5
Neighbor list builds = 0
Dangerous builds = 0
Setting atom values ...
  1 settings made for x
  1 settings made for y
  1 settings made for z
PPPM initialization ...
  using 12-bit tables for long-range coulomb (../kspace.cpp:321)
  G vector (1/distance) = 0.0299583
  grid = 2 2 2
  stencil order = 5
  estimated absolute RMS force accuracy = 0.00155756
  estimated relative force accuracy = 0.000108167
  using double precision FFTs
  3d grid and FFT values/proc = 343 8
Setting up Verlet run ...
  Unit style    : metal
  Current step  : 31
  Time step     : 1
Per MPI rank memory allocation (min/avg/max) = 9.869 | 9.869 | 9.869 Mbytes
Step Temp PotEng KinEng E_bond Press Density 
      31            0  -0.72858662            0  0.014032111    9.8743049 0.00064151289 
      32            0  -0.72858662            0  0.014032111    9.8743049 0.00064151289 
Loop time of 2.19345e-05 on 1 procs for 1 steps with 4 atoms

Performance: 3938998.539 ns/day, 0.000 hours/ns, 45590.261 timesteps/s
100.3% CPU use with 1 MPI tasks x no OpenMP threads

MPI task timing breakdown:
Section |  min time  |  avg time  |  max time  |%varavg| %total
---------------------------------------------------------------
Pair    | 1.9073e-06 | 1.9073e-06 | 1.9073e-06 |   0.0 |  8.70
Bond    | 0          | 0          | 0          |   0.0 |  0.00
Kspace  | 7.1526e-06 | 7.1526e-06 | 7.1526e-06 |   0.0 | 32.61
Neigh   | 0          | 0          | 0          |   0.0 |  0.00
Comm    | 9.5367e-07 | 9.5367e-07 | 9.5367e-07 |   0.0 |  4.35
Output  | 3.0994e-06 | 3.0994e-06 | 3.0994e-06 |   0.0 | 14.13
Modify  | 8.8215e-06 | 8.8215e-06 | 8.8215e-06 |   0.0 | 40.22
Other   |            | 0          |            |       |  0.00

Nlocal:    4 ave 4 max 4 min
Histogram: 1 0 0 0 0 0 0 0 0 0
Nghost:    1 ave 1 max 1 min
Histogram: 1 0 0 0 0 0 0 0 0 0
Neighs:    6 ave 6 max 6 min
Histogram: 1 0 0 0 0 0 0 0 0 0

Total # of neighbors = 6
Ave neighs/atom = 1.5
Ave special neighs/atom = 1.5
Neighbor list builds = 0
Dangerous builds = 0
Setting atom values ...
  1 settings made for x
  1 settings made for y
  1 settings made for z
PPPM initialization ...
  using 12-bit tables for long-range coulomb (../kspace.cpp:321)
  G vector (1/distance) = 0.0299583
  grid = 2 2 2
  stencil order = 5
  estimated absolute RMS force accuracy = 0.00155756
  estimated relative force accuracy = 0.000108167
  using double precision FFTs
  3d grid and FFT values/proc = 343 8
Setting up Verlet run ...
  Unit style    : metal
  Current step  : 32
  Time step     : 1
Per MPI rank memory allocation (min/avg/max) = 9.869 | 9.869 | 9.869 Mbytes
Step Temp PotEng KinEng E_bond Press Density 
      32            0  -0.60383096            0  0.014032111    10.012442 0.00064151289 
      33            0  -0.60383096            0  0.014032111    10.012442 0.00064151289 
Loop time of 2.09808e-05 on 1 procs for 1 steps with 4 atoms

Performance: 4118043.927 ns/day, 0.000 hours/ns, 47662.545 timesteps/s
100.1% CPU use with 1 MPI tasks x no OpenMP threads

MPI task timing breakdown:
Section |  min time  |  avg time  |  max time  |%varavg| %total
---------------------------------------------------------------
Pair    | 1.9073e-06 | 1.9073e-06 | 1.9073e-06 |   0.0 |  9.09
Bond    | 0          | 0          | 0          |   0.0 |  0.00
Kspace  | 6.9141e-06 | 6.9141e-06 | 6.9141e-06 |   0.0 | 32.95
Neigh   | 0          | 0          | 0          |   0.0 |  0.00
Comm    | 0          | 0          | 0          |   0.0 |  0.00
Output  | 1.9073e-06 | 1.9073e-06 | 1.9073e-06 |   0.0 |  9.09
Modify  | 8.1062e-06 | 8.1062e-06 | 8.1062e-06 |   0.0 | 38.64
Other   |            | 2.146e-06  |            |       | 10.23

Nlocal:    4 ave 4 max 4 min
Histogram: 1 0 0 0 0 0 0 0 0 0
Nghost:    1 ave 1 max 1 min
Histogram: 1 0 0 0 0 0 0 0 0 0
Neighs:    6 ave 6 max 6 min
Histogram: 1 0 0 0 0 0 0 0 0 0

Total # of neighbors = 6
Ave neighs/atom = 1.5
Ave special neighs/atom = 1.5
Neighbor list builds = 0
Dangerous builds = 0
Setting atom values ...
  1 settings made for x
  1 settings made for y
  1 settings made for z
PPPM initialization ...
  using 12-bit tables for long-range coulomb (../kspace.cpp:321)
  G vector (1/distance) = 0.0299583
  grid = 2 2 2
  stencil order = 5
  estimated absolute RMS force accuracy = 0.00155756
  estimated relative force accuracy = 0.000108167
  using double precision FFTs
  3d grid and FFT values/proc = 343 8
Setting up Verlet run ...
  Unit style    : metal
  Current step  : 33
  Time step     : 1
Per MPI rank memory allocation (min/avg/max) = 9.869 | 9.869 | 9.869 Mbytes
Step Temp PotEng KinEng E_bond Press Density 
      33            0  -0.48385461            0  0.014032111    10.150619 0.00064151289 
      34            0  -0.48385461            0  0.014032111    10.150619 0.00064151289 
Loop time of 2.09808e-05 on 1 procs for 1 steps with 4 atoms

Performance: 4118043.927 ns/day, 0.000 hours/ns, 47662.545 timesteps/s
100.1% CPU use with 1 MPI tasks x no OpenMP threads

MPI task timing breakdown:
Section |  min time  |  avg time  |  max time  |%varavg| %total
---------------------------------------------------------------
Pair    | 2.1458e-06 | 2.1458e-06 | 2.1458e-06 |   0.0 | 10.23
Bond    | 0          | 0          | 0          |   0.0 |  0.00
Kspace  | 6.9141e-06 | 6.9141e-06 | 6.9141e-06 |   0.0 | 32.95
Neigh   | 0          | 0          | 0          |   0.0 |  0.00
Comm    | 0          | 0          | 0          |   0.0 |  0.00
Output  | 3.0994e-06 | 3.0994e-06 | 3.0994e-06 |   0.0 | 14.77
Modify  | 6.9141e-06 | 6.9141e-06 | 6.9141e-06 |   0.0 | 32.95
Other   |            | 1.907e-06  |            |       |  9.09

Nlocal:    4 ave 4 max 4 min
Histogram: 1 0 0 0 0 0 0 0 0 0
Nghost:    1 ave 1 max 1 min
Histogram: 1 0 0 0 0 0 0 0 0 0
Neighs:    6 ave 6 max 6 min
Histogram: 1 0 0 0 0 0 0 0 0 0

Total # of neighbors = 6
Ave neighs/atom = 1.5
Ave special neighs/atom = 1.5
Neighbor list builds = 0
Dangerous builds = 0
Setting atom values ...
  1 settings made for x
  1 settings made for y
  1 settings made for z
PPPM initialization ...
  using 12-bit tables for long-range coulomb (../kspace.cpp:321)
  G vector (1/distance) = 0.0299583
  grid = 2 2 2
  stencil order = 5
  estimated absolute RMS force accuracy = 0.00155756
  estimated relative force accuracy = 0.000108167
  using double precision FFTs
  3d grid and FFT values/proc = 343 8
Setting up Verlet run ...
  Unit style    : metal
  Current step  : 34
  Time step     : 1
Per MPI rank memory allocation (min/avg/max) = 9.869 | 9.869 | 9.869 Mbytes
Step Temp PotEng KinEng E_bond Press Density 
      34            0  -0.37029447            0  0.014032111    10.291318 0.00064151289 
      35            0  -0.37029447            0  0.014032111    10.291318 0.00064151289 
Loop time of 2.09808e-05 on 1 procs for 1 steps with 4 atoms

Performance: 4118043.927 ns/day, 0.000 hours/ns, 47662.545 timesteps/s
100.1% CPU use with 1 MPI tasks x no OpenMP threads

MPI task timing breakdown:
Section |  min time  |  avg time  |  max time  |%varavg| %total
---------------------------------------------------------------
Pair    | 1.9073e-06 | 1.9073e-06 | 1.9073e-06 |   0.0 |  9.09
Bond    | 0          | 0          | 0          |   0.0 |  0.00
Kspace  | 7.1526e-06 | 7.1526e-06 | 7.1526e-06 |   0.0 | 34.09
Neigh   | 0          | 0          | 0          |   0.0 |  0.00
Comm    | 0          | 0          | 0          |   0.0 |  0.00
Output  | 3.0994e-06 | 3.0994e-06 | 3.0994e-06 |   0.0 | 14.77
Modify  | 6.9141e-06 | 6.9141e-06 | 6.9141e-06 |   0.0 | 32.95
Other   |            | 1.907e-06  |            |       |  9.09

Nlocal:    4 ave 4 max 4 min
Histogram: 1 0 0 0 0 0 0 0 0 0
Nghost:    1 ave 1 max 1 min
Histogram: 1 0 0 0 0 0 0 0 0 0
Neighs:    6 ave 6 max 6 min
Histogram: 1 0 0 0 0 0 0 0 0 0

Total # of neighbors = 6
Ave neighs/atom = 1.5
Ave special neighs/atom = 1.5
Neighbor list builds = 0
Dangerous builds = 0
Setting atom values ...
  1 settings made for x
  1 settings made for y
  1 settings made for z
PPPM initialization ...
  using 12-bit tables for long-range coulomb (../kspace.cpp:321)
  G vector (1/distance) = 0.0299583
  grid = 2 2 2
  stencil order = 5
  estimated absolute RMS force accuracy = 0.00155756
  estimated relative force accuracy = 0.000108167
  using double precision FFTs
  3d grid and FFT values/proc = 343 8
Setting up Verlet run ...
  Unit style    : metal
  Current step  : 35
  Time step     : 1
Per MPI rank memory allocation (min/avg/max) = 9.869 | 9.869 | 9.869 Mbytes
Step Temp PotEng KinEng E_bond Press Density 
      35            0  -0.23795401            0  0.014032111    10.546036 0.00064151289 
      36            0  -0.23795401            0  0.014032111    10.546036 0.00064151289 
Loop time of 2.00272e-05 on 1 procs for 1 steps with 4 atoms

Performance: 4314141.257 ns/day, 0.000 hours/ns, 49932.190 timesteps/s
99.9% CPU use with 1 MPI tasks x no OpenMP threads

MPI task timing breakdown:
Section |  min time  |  avg time  |  max time  |%varavg| %total
---------------------------------------------------------------
Pair    | 9.5367e-07 | 9.5367e-07 | 9.5367e-07 |   0.0 |  4.76
Bond    | 0          | 0          | 0          |   0.0 |  0.00
Kspace  | 7.1526e-06 | 7.1526e-06 | 7.1526e-06 |   0.0 | 35.71
Neigh   | 0          | 0          | 0          |   0.0 |  0.00
Comm    | 9.5367e-07 | 9.5367e-07 | 9.5367e-07 |   0.0 |  4.76
Output  | 2.1458e-06 | 2.1458e-06 | 2.1458e-06 |   0.0 | 10.71
Modify  | 7.8678e-06 | 7.8678e-06 | 7.8678e-06 |   0.0 | 39.29
Other   |            | 9.537e-07  |            |       |  4.76

Nlocal:    4 ave 4 max 4 min
Histogram: 1 0 0 0 0 0 0 0 0 0
Nghost:    1 ave 1 max 1 min
Histogram: 1 0 0 0 0 0 0 0 0 0
Neighs:    5 ave 5 max 5 min
Histogram: 1 0 0 0 0 0 0 0 0 0

Total # of neighbors = 5
Ave neighs/atom = 1.25
Ave special neighs/atom = 1.5
Neighbor list builds = 0
Dangerous builds = 0
Setting atom values ...
  1 settings made for x
  1 settings made for y
  1 settings made for z
PPPM initialization ...
  using 12-bit tables for long-range coulomb (../kspace.cpp:321)
  G vector (1/distance) = 0.0299583
  grid = 2 2 2
  stencil order = 5
  estimated absolute RMS force accuracy = 0.00155756
  estimated relative force accuracy = 0.000108167
  using double precision FFTs
  3d grid and FFT values/proc = 343 8
Setting up Verlet run ...
  Unit style    : metal
  Current step  : 36
  Time step     : 1
Per MPI rank memory allocation (min/avg/max) = 9.869 | 9.869 | 9.869 Mbytes
Step Temp PotEng KinEng E_bond Press Density 
      36            0    2.4265385            0  0.014032111    143.03156 0.00064151289 
      37            0    2.4265385            0  0.014032111    143.03156 0.00064151289 
Loop time of 2.09808e-05 on 1 procs for 1 steps with 4 atoms

Performance: 4118043.927 ns/day, 0.000 hours/ns, 47662.545 timesteps/s
100.1% CPU use with 1 MPI tasks x no OpenMP threads

MPI task timing breakdown:
Section |  min time  |  avg time  |  max time  |%varavg| %total
---------------------------------------------------------------
Pair    | 1.9073e-06 | 1.9073e-06 | 1.9073e-06 |   0.0 |  9.09
Bond    | 9.5367e-07 | 9.5367e-07 | 9.5367e-07 |   0.0 |  4.55
Kspace  | 7.1526e-06 | 7.1526e-06 | 7.1526e-06 |   0.0 | 34.09
Neigh   | 0          | 0          | 0          |   0.0 |  0.00
Comm    | 0          | 0          | 0          |   0.0 |  0.00
Output  | 1.9073e-06 | 1.9073e-06 | 1.9073e-06 |   0.0 |  9.09
Modify  | 6.9141e-06 | 6.9141e-06 | 6.9141e-06 |   0.0 | 32.95
Other   |            | 2.146e-06  |            |       | 10.23

Nlocal:    4 ave 4 max 4 min
Histogram: 1 0 0 0 0 0 0 0 0 0
Nghost:    0 ave 0 max 0 min
Histogram: 1 0 0 0 0 0 0 0 0 0
Neighs:    6 ave 6 max 6 min
Histogram: 1 0 0 0 0 0 0 0 0 0

Total # of neighbors = 6
Ave neighs/atom = 1.5
Ave special neighs/atom = 1.5
Neighbor list builds = 0
Dangerous builds = 0
Setting atom values ...
  1 settings made for x
  1 settings made for y
  1 settings made for z
PPPM initialization ...
  using 12-bit tables for long-range coulomb (../kspace.cpp:321)
  G vector (1/distance) = 0.0299583
  grid = 2 2 2
  stencil order = 5
  estimated absolute RMS force accuracy = 0.00155756
  estimated relative force accuracy = 0.000108167
  using double precision FFTs
  3d grid and FFT values/proc = 343 8
Setting up Verlet run ...
  Unit style    : metal
  Current step  : 37
  Time step     : 1
Per MPI rank memory allocation (min/avg/max) = 9.869 | 9.869 | 9.869 Mbytes
Step Temp PotEng KinEng E_bond Press Density 
      37            0   -2.7222164            0  0.014032111     7.771361 0.00064151289 
      38            0   -2.7222164            0  0.014032111     7.771361 0.00064151289 
Loop time of 2.00272e-05 on 1 procs for 1 steps with 4 atoms

Performance: 4314141.257 ns/day, 0.000 hours/ns, 49932.190 timesteps/s
104.9% CPU use with 1 MPI tasks x no OpenMP threads

MPI task timing breakdown:
Section |  min time  |  avg time  |  max time  |%varavg| %total
---------------------------------------------------------------
Pair    | 1.9073e-06 | 1.9073e-06 | 1.9073e-06 |   0.0 |  9.52
Bond    | 9.5367e-07 | 9.5367e-07 | 9.5367e-07 |   0.0 |  4.76
Kspace  | 6.1989e-06 | 6.1989e-06 | 6.1989e-06 |   0.0 | 30.95
Neigh   | 0          | 0          | 0          |   0.0 |  0.00
Comm    | 0          | 0          | 0          |   0.0 |  0.00
Output  | 3.0994e-06 | 3.0994e-06 | 3.0994e-06 |   0.0 | 15.48
Modify  | 7.8678e-06 | 7.8678e-06 | 7.8678e-06 |   0.0 | 39.29
Other   |            | 0          |            |       |  0.00

Nlocal:    4 ave 4 max 4 min
Histogram: 1 0 0 0 0 0 0 0 0 0
Nghost:    0 ave 0 max 0 min
Histogram: 1 0 0 0 0 0 0 0 0 0
Neighs:    6 ave 6 max 6 min
Histogram: 1 0 0 0 0 0 0 0 0 0

Total # of neighbors = 6
Ave neighs/atom = 1.5
Ave special neighs/atom = 1.5
Neighbor list builds = 0
Dangerous builds = 0
Setting atom values ...
  1 settings made for x
  1 settings made for y
  1 settings made for z
PPPM initialization ...
  using 12-bit tables for long-range coulomb (../kspace.cpp:321)
  G vector (1/distance) = 0.0299583
  grid = 2 2 2
  stencil order = 5
  estimated absolute RMS force accuracy = 0.00155756
  estimated relative force accuracy = 0.000108167
  using double precision FFTs
  3d grid and FFT values/proc = 343 8
Setting up Verlet run ...
  Unit style    : metal
  Current step  : 38
  Time step     : 1
Per MPI rank memory allocation (min/avg/max) = 9.869 | 9.869 | 9.869 Mbytes
Step Temp PotEng KinEng E_bond Press Density 
      38            0   -1.8133891            0  0.014032111    8.7263863 0.00064151289 
      39            0   -1.8133891            0  0.014032111    8.7263863 0.00064151289 
Loop time of 2.69413e-05 on 1 procs for 1 steps with 4 atoms

Performance: 3206972.262 ns/day, 0.000 hours/ns, 37117.735 timesteps/s
103.9% CPU use with 1 MPI tasks x no OpenMP threads

MPI task timing breakdown:
Section |  min time  |  avg time  |  max time  |%varavg| %total
---------------------------------------------------------------
Pair    | 1.9073e-06 | 1.9073e-06 | 1.9073e-06 |   0.0 |  7.08
Bond    | 9.5367e-07 | 9.5367e-07 | 9.5367e-07 |   0.0 |  3.54
Kspace  | 6.1989e-06 | 6.1989e-06 | 6.1989e-06 |   0.0 | 23.01
Neigh   | 0          | 0          | 0          |   0.0 |  0.00
Comm    | 0          | 0          | 0          |   0.0 |  0.00
Output  | 9.0599e-06 | 9.0599e-06 | 9.0599e-06 |   0.0 | 33.63
Modify  | 7.8678e-06 | 7.8678e-06 | 7.8678e-06 |   0.0 | 29.20
Other   |            | 9.537e-07  |            |       |  3.54

Nlocal:    4 ave 4 max 4 min
Histogram: 1 0 0 0 0 0 0 0 0 0
Nghost:    0 ave 0 max 0 min
Histogram: 1 0 0 0 0 0 0 0 0 0
Neighs:    6 ave 6 max 6 min
Histogram: 1 0 0 0 0 0 0 0 0 0

Total # of neighbors = 6
Ave neighs/atom = 1.5
Ave special neighs/atom = 1.5
Neighbor list builds = 0
Dangerous builds = 0
Setting atom values ...
  1 settings made for x
  1 settings made for y
  1 settings made for z
PPPM initialization ...
  using 12-bit tables for long-range coulomb (../kspace.cpp:321)
  G vector (1/distance) = 0.0299583
  grid = 2 2 2
  stencil order = 5
  estimated absolute RMS force accuracy = 0.00155756
  estimated relative force accuracy = 0.000108167
  using double precision FFTs
  3d grid and FFT values/proc = 343 8
Setting up Verlet run ...
  Unit style    : metal
  Current step  : 39
  Time step     : 1
Per MPI rank memory allocation (min/avg/max) = 9.869 | 9.869 | 9.869 Mbytes
Step Temp PotEng KinEng E_bond Press Density 
      39            0   -1.3935981            0  0.014032111    9.1668188 0.00064151289 
      40            0   -1.3935981            0  0.014032111    9.1668188 0.00064151289 
Loop time of 2.09808e-05 on 1 procs for 1 steps with 4 atoms

[...]
Histogram: 1 0 0 0 0 0 0 0 0 0
Nghost:    0 ave 0 max 0 min
Histogram: 1 0 0 0 0 0 0 0 0 0
Neighs:    6 ave 6 max 6 min
Histogram: 1 0 0 0 0 0 0 0 0 0

Total # of neighbors = 6
Ave neighs/atom = 1.5
Ave special neighs/atom = 1.5
Neighbor list builds = 0
Dangerous builds = 0
Setting atom values ...
  1 settings made for x
  1 settings made for y
  1 settings made for z
PPPM initialization ...
  using 12-bit tables for long-range coulomb (../kspace.cpp:321)
  G vector (1/distance) = 0.0299583
  grid = 2 2 2
  stencil order = 5
  estimated absolute RMS force accuracy = 0.00155756
  estimated relative force accuracy = 0.000108167
  using double precision FFTs
  3d grid and FFT values/proc = 343 8
Setting up Verlet run ...
  Unit style    : metal
  Current step  : 134
  Time step     : 1
Per MPI rank memory allocation (min/avg/max) = 9.869 | 9.869 | 9.869 Mbytes
Step Temp PotEng KinEng E_bond Press Density 
     134            0   -1.5100872            0  0.014032111    9.0274585 0.00064151289 
     135            0   -1.5100872            0  0.014032111    9.0274585 0.00064151289 
Loop time of 1.97887e-05 on 1 procs for 1 steps with 4 atoms

Performance: 4366118.863 ns/day, 0.000 hours/ns, 50533.783 timesteps/s
101.1% CPU use with 1 MPI tasks x no OpenMP threads

MPI task timing breakdown:
Section |  min time  |  avg time  |  max time  |%varavg| %total
---------------------------------------------------------------
Pair    | 1.9073e-06 | 1.9073e-06 | 1.9073e-06 |   0.0 |  9.64
Bond    | 0          | 0          | 0          |   0.0 |  0.00
Kspace  | 6.9141e-06 | 6.9141e-06 | 6.9141e-06 |   0.0 | 34.94
Neigh   | 0          | 0          | 0          |   0.0 |  0.00
Comm    | 9.5367e-07 | 9.5367e-07 | 9.5367e-07 |   0.0 |  4.82
Output  | 2.861e-06  | 2.861e-06  | 2.861e-06  |   0.0 | 14.46
Modify  | 7.1526e-06 | 7.1526e-06 | 7.1526e-06 |   0.0 | 36.14
Other   |            | 0          |            |       |  0.00

Nlocal:    4 ave 4 max 4 min
Histogram: 1 0 0 0 0 0 0 0 0 0
Nghost:    0 ave 0 max 0 min
Histogram: 1 0 0 0 0 0 0 0 0 0
Neighs:    6 ave 6 max 6 min
Histogram: 1 0 0 0 0 0 0 0 0 0

Total # of neighbors = 6
Ave neighs/atom = 1.5
Ave special neighs/atom = 1.5
Neighbor list builds = 0
Dangerous builds = 0
Setting atom values ...
  1 settings made for x
  1 settings made for y
  1 settings made for z
PPPM initialization ...
  using 12-bit tables for long-range coulomb (../kspace.cpp:321)
  G vector (1/distance) = 0.0299583
  grid = 2 2 2
  stencil order = 5
  estimated absolute RMS force accuracy = 0.00155756
  estimated relative force accuracy = 0.000108167
  using double precision FFTs
  3d grid and FFT values/proc = 343 8
Setting up Verlet run ...
  Unit style    : metal
  Current step  : 135
  Time step     : 1
Per MPI rank memory allocation (min/avg/max) = 9.869 | 9.869 | 9.869 Mbytes
Step Temp PotEng KinEng E_bond Press Density 
     135            0   -1.2392975            0  0.014032111    9.3258921 0.00064151289 
     136            0   -1.2392975            0  0.014032111    9.3258921 0.00064151289 
Loop time of 2.09808e-05 on 1 procs for 1 steps with 4 atoms

Performance: 4118043.927 ns/day, 0.000 hours/ns, 47662.545 timesteps/s
100.1% CPU use with 1 MPI tasks x no OpenMP threads

MPI task timing breakdown:
Section |  min time  |  avg time  |  max time  |%varavg| %total
---------------------------------------------------------------
Pair    | 2.1458e-06 | 2.1458e-06 | 2.1458e-06 |   0.0 | 10.23
Bond    | 9.5367e-07 | 9.5367e-07 | 9.5367e-07 |   0.0 |  4.55
Kspace  | 5.9605e-06 | 5.9605e-06 | 5.9605e-06 |   0.0 | 28.41
Neigh   | 0          | 0          | 0          |   0.0 |  0.00
Comm    | 0          | 0          | 0          |   0.0 |  0.00
Output  | 2.861e-06  | 2.861e-06  | 2.861e-06  |   0.0 | 13.64
Modify  | 8.1062e-06 | 8.1062e-06 | 8.1062e-06 |   0.0 | 38.64
Other   |            | 9.537e-07  |            |       |  4.55

Nlocal:    4 ave 4 max 4 min
Histogram: 1 0 0 0 0 0 0 0 0 0
Nghost:    0 ave 0 max 0 min
Histogram: 1 0 0 0 0 0 0 0 0 0
Neighs:    6 ave 6 max 6 min
Histogram: 1 0 0 0 0 0 0 0 0 0

Total # of neighbors = 6
Ave neighs/atom = 1.5
Ave special neighs/atom = 1.5
Neighbor list builds = 0
Dangerous builds = 0
Setting atom values ...
  1 settings made for x
  1 settings made for y
  1 settings made for z
PPPM initialization ...
  using 12-bit tables for long-range coulomb (../kspace.cpp:321)
  G vector (1/distance) = 0.0299583
  grid = 2 2 2
  stencil order = 5
  estimated absolute RMS force accuracy = 0.00155756
  estimated relative force accuracy = 0.000108167
  using double precision FFTs
  3d grid and FFT values/proc = 343 8
Setting up Verlet run ...
  Unit style    : metal
  Current step  : 136
  Time step     : 1
Per MPI rank memory allocation (min/avg/max) = 9.869 | 9.869 | 9.869 Mbytes
Step Temp PotEng KinEng E_bond Press Density 
     136            0   -1.0497964            0  0.014032111    9.5285858 0.00064151289 
     137            0   -1.0497964            0  0.014032111    9.5285858 0.00064151289 
Loop time of 2.00272e-05 on 1 procs for 1 steps with 4 atoms

Performance: 4314141.257 ns/day, 0.000 hours/ns, 49932.190 timesteps/s
104.9% CPU use with 1 MPI tasks x no OpenMP threads

MPI task timing breakdown:
Section |  min time  |  avg time  |  max time  |%varavg| %total
---------------------------------------------------------------
Pair    | 2.1458e-06 | 2.1458e-06 | 2.1458e-06 |   0.0 | 10.71
Bond    | 9.5367e-07 | 9.5367e-07 | 9.5367e-07 |   0.0 |  4.76
Kspace  | 5.9605e-06 | 5.9605e-06 | 5.9605e-06 |   0.0 | 29.76
Neigh   | 0          | 0          | 0          |   0.0 |  0.00
Comm    | 0          | 0          | 0          |   0.0 |  0.00
Output  | 1.9073e-06 | 1.9073e-06 | 1.9073e-06 |   0.0 |  9.52
Modify  | 8.1062e-06 | 8.1062e-06 | 8.1062e-06 |   0.0 | 40.48
Other   |            | 9.537e-07  |            |       |  4.76

Nlocal:    4 ave 4 max 4 min
Histogram: 1 0 0 0 0 0 0 0 0 0
Nghost:    0 ave 0 max 0 min
Histogram: 1 0 0 0 0 0 0 0 0 0
Neighs:    6 ave 6 max 6 min
Histogram: 1 0 0 0 0 0 0 0 0 0

Total # of neighbors = 6
Ave neighs/atom = 1.5
Ave special neighs/atom = 1.5
Neighbor list builds = 0
Dangerous builds = 0
Setting atom values ...
  1 settings made for x
  1 settings made for y
  1 settings made for z
PPPM initialization ...
  using 12-bit tables for long-range coulomb (../kspace.cpp:321)
  G vector (1/distance) = 0.0299583
  grid = 2 2 2
  stencil order = 5
  estimated absolute RMS force accuracy = 0.00155756
  estimated relative force accuracy = 0.000108167
  using double precision FFTs
  3d grid and FFT values/proc = 343 8
Setting up Verlet run ...
  Unit style    : metal
  Current step  : 137
  Time step     : 1
Per MPI rank memory allocation (min/avg/max) = 9.869 | 9.869 | 9.869 Mbytes
Step Temp PotEng KinEng E_bond Press Density 
     137            0  -0.91086951            0  0.014032111    9.6770915 0.00064151289 
     138            0  -0.91086951            0  0.014032111    9.6770915 0.00064151289 
Loop time of 2.00272e-05 on 1 procs for 1 steps with 4 atoms

Performance: 4314141.257 ns/day, 0.000 hours/ns, 49932.190 timesteps/s
104.9% CPU use with 1 MPI tasks x no OpenMP threads

MPI task timing breakdown:
Section |  min time  |  avg time  |  max time  |%varavg| %total
---------------------------------------------------------------
Pair    | 2.1458e-06 | 2.1458e-06 | 2.1458e-06 |   0.0 | 10.71
Bond    | 9.5367e-07 | 9.5367e-07 | 9.5367e-07 |   0.0 |  4.76
Kspace  | 5.9605e-06 | 5.9605e-06 | 5.9605e-06 |   0.0 | 29.76
Neigh   | 0          | 0          | 0          |   0.0 |  0.00
Comm    | 0          | 0          | 0          |   0.0 |  0.00
Output  | 2.861e-06  | 2.861e-06  | 2.861e-06  |   0.0 | 14.29
Modify  | 8.1062e-06 | 8.1062e-06 | 8.1062e-06 |   0.0 | 40.48
Other   |            | 0          |            |       |  0.00

Nlocal:    4 ave 4 max 4 min
Histogram: 1 0 0 0 0 0 0 0 0 0
Nghost:    0 ave 0 max 0 min
Histogram: 1 0 0 0 0 0 0 0 0 0
Neighs:    6 ave 6 max 6 min
Histogram: 1 0 0 0 0 0 0 0 0 0

Total # of neighbors = 6
Ave neighs/atom = 1.5
Ave special neighs/atom = 1.5
Neighbor list builds = 0
Dangerous builds = 0
Setting atom values ...
  1 settings made for x
  1 settings made for y
  1 settings made for z
PPPM initialization ...
  using 12-bit tables for long-range coulomb (../kspace.cpp:321)
  G vector (1/distance) = 0.0299583
  grid = 2 2 2
  stencil order = 5
  estimated absolute RMS force accuracy = 0.00155756
  estimated relative force accuracy = 0.000108167
  using double precision FFTs
  3d grid and FFT values/proc = 343 8
Setting up Verlet run ...
  Unit style    : metal
  Current step  : 138
  Time step     : 1
Per MPI rank memory allocation (min/avg/max) = 9.869 | 9.869 | 9.869 Mbytes
Step Temp PotEng KinEng E_bond Press Density 
     138            0  -0.80501034            0  0.014032111    9.7910547 0.00064151289 
     139            0  -0.80501034            0  0.014032111    9.7910547 0.00064151289 
Loop time of 2.09808e-05 on 1 procs for 1 steps with 4 atoms

Performance: 4118043.927 ns/day, 0.000 hours/ns, 47662.545 timesteps/s
100.1% CPU use with 1 MPI tasks x no OpenMP threads

MPI task timing breakdown:
Section |  min time  |  avg time  |  max time  |%varavg| %total
---------------------------------------------------------------
Pair    | 2.1458e-06 | 2.1458e-06 | 2.1458e-06 |   0.0 | 10.23
Bond    | 9.5367e-07 | 9.5367e-07 | 9.5367e-07 |   0.0 |  4.55
Kspace  | 6.9141e-06 | 6.9141e-06 | 6.9141e-06 |   0.0 | 32.95
Neigh   | 0          | 0          | 0          |   0.0 |  0.00
Comm    | 0          | 0          | 0          |   0.0 |  0.00
Output  | 1.9073e-06 | 1.9073e-06 | 1.9073e-06 |   0.0 |  9.09
Modify  | 8.1062e-06 | 8.1062e-06 | 8.1062e-06 |   0.0 | 38.64
Other   |            | 9.537e-07  |            |       |  4.55

Nlocal:    4 ave 4 max 4 min
Histogram: 1 0 0 0 0 0 0 0 0 0
Nghost:    1 ave 1 max 1 min
Histogram: 1 0 0 0 0 0 0 0 0 0
Neighs:    6 ave 6 max 6 min
Histogram: 1 0 0 0 0 0 0 0 0 0

Total # of neighbors = 6
Ave neighs/atom = 1.5
Ave special neighs/atom = 1.5
Neighbor list builds = 0
Dangerous builds = 0
Setting atom values ...
  1 settings made for x
  1 settings made for y
  1 settings made for z
PPPM initialization ...
  using 12-bit tables for long-range coulomb (../kspace.cpp:321)
  G vector (1/distance) = 0.0299583
  grid = 2 2 2
  stencil order = 5
  estimated absolute RMS force accuracy = 0.00155756
  estimated relative force accuracy = 0.000108167
  using double precision FFTs
  3d grid and FFT values/proc = 343 8
Setting up Verlet run ...
  Unit style    : metal
  Current step  : 139
  Time step     : 1
Per MPI rank memory allocation (min/avg/max) = 9.869 | 9.869 | 9.869 Mbytes
Step Temp PotEng KinEng E_bond Press Density 
     139            0   -0.7218209            0  0.014032111    9.8815504 0.00064151289 
     140            0   -0.7218209            0  0.014032111    9.8815504 0.00064151289 
Loop time of 2.09808e-05 on 1 procs for 1 steps with 4 atoms

Performance: 4118043.927 ns/day, 0.000 hours/ns, 47662.545 timesteps/s
100.1% CPU use with 1 MPI tasks x no OpenMP threads

MPI task timing breakdown:
Section |  min time  |  avg time  |  max time  |%varavg| %total
---------------------------------------------------------------
Pair    | 1.9073e-06 | 1.9073e-06 | 1.9073e-06 |   0.0 |  9.09
Bond    | 0          | 0          | 0          |   0.0 |  0.00
Kspace  | 6.9141e-06 | 6.9141e-06 | 6.9141e-06 |   0.0 | 32.95
Neigh   | 0          | 0          | 0          |   0.0 |  0.00
Comm    | 9.5367e-07 | 9.5367e-07 | 9.5367e-07 |   0.0 |  4.55
Output  | 3.0994e-06 | 3.0994e-06 | 3.0994e-06 |   0.0 | 14.77
Modify  | 8.1062e-06 | 8.1062e-06 | 8.1062e-06 |   0.0 | 38.64
Other   |            | 0          |            |       |  0.00

Nlocal:    4 ave 4 max 4 min
Histogram: 1 0 0 0 0 0 0 0 0 0
Nghost:    1 ave 1 max 1 min
Histogram: 1 0 0 0 0 0 0 0 0 0
Neighs:    6 ave 6 max 6 min
Histogram: 1 0 0 0 0 0 0 0 0 0

Total # of neighbors = 6
Ave neighs/atom = 1.5
Ave special neighs/atom = 1.5
Neighbor list builds = 0
Dangerous builds = 0
Setting atom values ...
  1 settings made for x
  1 settings made for y
  1 settings made for z
PPPM initialization ...
  using 12-bit tables for long-range coulomb (../kspace.cpp:321)
  G vector (1/distance) = 0.0299583
  grid = 2 2 2
  stencil order = 5
  estimated absolute RMS force accuracy = 0.00155756
  estimated relative force accuracy = 0.000108167
  using double precision FFTs
  3d grid and FFT values/proc = 343 8
Setting up Verlet run ...
  Unit style    : metal
  Current step  : 140
  Time step     : 1
Per MPI rank memory allocation (min/avg/max) = 9.869 | 9.869 | 9.869 Mbytes
Step Temp PotEng KinEng E_bond Press Density 
     140            0  -0.59977148            0  0.014032111     10.01689 0.00064151289 
     141            0  -0.59977148            0  0.014032111     10.01689 0.00064151289 
Loop time of 2.00272e-05 on 1 procs for 1 steps with 4 atoms

Performance: 4314141.257 ns/day, 0.000 hours/ns, 49932.190 timesteps/s
109.9% CPU use with 1 MPI tasks x no OpenMP threads

MPI task timing breakdown:
Section |  min time  |  avg time  |  max time  |%varavg| %total
---------------------------------------------------------------
Pair    | 2.861e-06  | 2.861e-06  | 2.861e-06  |   0.0 | 14.29
Bond    | 0          | 0          | 0          |   0.0 |  0.00
Kspace  | 7.1526e-06 | 7.1526e-06 | 7.1526e-06 |   0.0 | 35.71
Neigh   | 0          | 0          | 0          |   0.0 |  0.00
Comm    | 0          | 0          | 0          |   0.0 |  0.00
Output  | 3.0994e-06 | 3.0994e-06 | 3.0994e-06 |   0.0 | 15.48
Modify  | 6.9141e-06 | 6.9141e-06 | 6.9141e-06 |   0.0 | 34.52
Other   |            | 0          |            |       |  0.00

Nlocal:    4 ave 4 max 4 min
Histogram: 1 0 0 0 0 0 0 0 0 0
Nghost:    1 ave 1 max 1 min
Histogram: 1 0 0 0 0 0 0 0 0 0
Neighs:    6 ave 6 max 6 min
Histogram: 1 0 0 0 0 0 0 0 0 0

Total # of neighbors = 6
Ave neighs/atom = 1.5
Ave special neighs/atom = 1.5
Neighbor list builds = 0
Dangerous builds = 0
Setting atom values ...
  1 settings made for x
  1 settings made for y
  1 settings made for z
PPPM initialization ...
  using 12-bit tables for long-range coulomb (../kspace.cpp:321)
  G vector (1/distance) = 0.0299583
  grid = 2 2 2
  stencil order = 5
  estimated absolute RMS force accuracy = 0.00155756
  estimated relative force accuracy = 0.000108167
  using double precision FFTs
  3d grid and FFT values/proc = 343 8
Setting up Verlet run ...
  Unit style    : metal
  Current step  : 141
  Time step     : 1
Per MPI rank memory allocation (min/avg/max) = 9.869 | 9.869 | 9.869 Mbytes
Step Temp PotEng KinEng E_bond Press Density 
     141            0   -0.4816351            0  0.014032111    10.153186 0.00064151289 
     142            0   -0.4816351            0  0.014032111    10.153186 0.00064151289 
Loop time of 2.19345e-05 on 1 procs for 1 steps with 4 atoms

Performance: 3938998.539 ns/day, 0.000 hours/ns, 45590.261 timesteps/s
100.3% CPU use with 1 MPI tasks x no OpenMP threads

MPI task timing breakdown:
Section |  min time  |  avg time  |  max time  |%varavg| %total
---------------------------------------------------------------
Pair    | 1.9073e-06 | 1.9073e-06 | 1.9073e-06 |   0.0 |  8.70
Bond    | 1.1921e-06 | 1.1921e-06 | 1.1921e-06 |   0.0 |  5.43
Kspace  | 5.9605e-06 | 5.9605e-06 | 5.9605e-06 |   0.0 | 27.17
Neigh   | 0          | 0          | 0          |   0.0 |  0.00
Comm    | 0          | 0          | 0          |   0.0 |  0.00
Output  | 3.0994e-06 | 3.0994e-06 | 3.0994e-06 |   0.0 | 14.13
Modify  | 7.8678e-06 | 7.8678e-06 | 7.8678e-06 |   0.0 | 35.87
Other   |            | 1.907e-06  |            |       |  8.70

Nlocal:    4 ave 4 max 4 min
Histogram: 1 0 0 0 0 0 0 0 0 0
Nghost:    1 ave 1 max 1 min
Histogram: 1 0 0 0 0 0 0 0 0 0
Neighs:    6 ave 6 max 6 min
Histogram: 1 0 0 0 0 0 0 0 0 0

Total # of neighbors = 6
Ave neighs/atom = 1.5
Ave special neighs/atom = 1.5
Neighbor list builds = 0
Dangerous builds = 0
Setting atom values ...
  1 settings made for x
  1 settings made for y
  1 settings made for z
PPPM initialization ...
  using 12-bit tables for long-range coulomb (../kspace.cpp:321)
  G vector (1/distance) = 0.0299583
  grid = 2 2 2
  stencil order = 5
  estimated absolute RMS force accuracy = 0.00155756
  estimated relative force accuracy = 0.000108167
  using double precision FFTs
  3d grid and FFT values/proc = 343 8
Setting up Verlet run ...
  Unit style    : metal
  Current step  : 142
  Time step     : 1
Per MPI rank memory allocation (min/avg/max) = 9.869 | 9.869 | 9.869 Mbytes
Step Temp PotEng KinEng E_bond Press Density 
     142            0  -0.36926736            0  0.014032111    10.292682 0.00064151289 
     143            0  -0.36926736            0  0.014032111    10.292682 0.00064151289 
Loop time of 2.09808e-05 on 1 procs for 1 steps with 4 atoms

Performance: 4118043.927 ns/day, 0.000 hours/ns, 47662.545 timesteps/s
100.1% CPU use with 1 MPI tasks x no OpenMP threads

MPI task timing breakdown:
Section |  min time  |  avg time  |  max time  |%varavg| %total
---------------------------------------------------------------
Pair    | 1.1921e-06 | 1.1921e-06 | 1.1921e-06 |   0.0 |  5.68
Bond    | 9.5367e-07 | 9.5367e-07 | 9.5367e-07 |   0.0 |  4.55
Kspace  | 5.9605e-06 | 5.9605e-06 | 5.9605e-06 |   0.0 | 28.41
Neigh   | 0          | 0          | 0          |   0.0 |  0.00
Comm    | 1.9073e-06 | 1.9073e-06 | 1.9073e-06 |   0.0 |  9.09
Output  | 1.9073e-06 | 1.9073e-06 | 1.9073e-06 |   0.0 |  9.09
Modify  | 8.1062e-06 | 8.1062e-06 | 8.1062e-06 |   0.0 | 38.64
Other   |            | 9.537e-07  |            |       |  4.55

Nlocal:    4 ave 4 max 4 min
Histogram: 1 0 0 0 0 0 0 0 0 0
Nghost:    1 ave 1 max 1 min
Histogram: 1 0 0 0 0 0 0 0 0 0
Neighs:    6 ave 6 max 6 min
Histogram: 1 0 0 0 0 0 0 0 0 0

Total # of neighbors = 6
Ave neighs/atom = 1.5
Ave special neighs/atom = 1.5
Neighbor list builds = 0
Dangerous builds = 0
Setting atom values ...
  1 settings made for x
  1 settings made for y
  1 settings made for z
PPPM initialization ...
  using 12-bit tables for long-range coulomb (../kspace.cpp:321)
  G vector (1/distance) = 0.0299583
  grid = 2 2 2
  stencil order = 5
  estimated absolute RMS force accuracy = 0.00155756
  estimated relative force accuracy = 0.000108167
  using double precision FFTs
  3d grid and FFT values/proc = 343 8
Setting up Verlet run ...
  Unit style    : metal
  Current step  : 143
  Time step     : 1
Per MPI rank memory allocation (min/avg/max) = 9.869 | 9.869 | 9.869 Mbytes
Step Temp PotEng KinEng E_bond Press Density 
     143            0  -0.23763891            0  0.014032111    10.546658 0.00064151289 
     144            0  -0.23763891            0  0.014032111    10.546658 0.00064151289 
Loop time of 2.09808e-05 on 1 procs for 1 steps with 4 atoms

Performance: 4118043.927 ns/day, 0.000 hours/ns, 47662.545 timesteps/s
100.1% CPU use with 1 MPI tasks x no OpenMP threads

MPI task timing breakdown:
Section |  min time  |  avg time  |  max time  |%varavg| %total
---------------------------------------------------------------
Pair    | 9.5367e-07 | 9.5367e-07 | 9.5367e-07 |   0.0 |  4.55
Bond    | 0          | 0          | 0          |   0.0 |  0.00
Kspace  | 7.1526e-06 | 7.1526e-06 | 7.1526e-06 |   0.0 | 34.09
Neigh   | 0          | 0          | 0          |   0.0 |  0.00
Comm    | 0          | 0          | 0          |   0.0 |  0.00
Output  | 3.0994e-06 | 3.0994e-06 | 3.0994e-06 |   0.0 | 14.77
Modify  | 7.8678e-06 | 7.8678e-06 | 7.8678e-06 |   0.0 | 37.50
Other   |            | 1.907e-06  |            |       |  9.09

Nlocal:    4 ave 4 max 4 min
Histogram: 1 0 0 0 0 0 0 0 0 0
Nghost:    1 ave 1 max 1 min
Histogram: 1 0 0 0 0 0 0 0 0 0
Neighs:    5 ave 5 max 5 min
Histogram: 1 0 0 0 0 0 0 0 0 0

Total # of neighbors = 5
Ave neighs/atom = 1.25
Ave special neighs/atom = 1.5
Neighbor list builds = 0
Dangerous builds = 0
Total wall time: 0:00:00
