LAMMPS (16 Mar 2018)
# -- INITIALIZATION -- #
dimension 3
boundary p p p
atom_style full
units metal
dielectric 2.0
bond_style harmonic
angle_style harmonic
kspace_style pppm/cg 1.0e-4
kspace_modify pressure/scalar yes

neighbor 2.0 bin
neigh_modify delay 0 every 1 check yes

# -- ATOM DEFINITION -- #
region box1 block -40.0 40.0 -40.0 40.0 -40.0 40.0
create_box 4 box1 bond/types 2 extra/bond/per/atom 2 angle/types 1 extra/angle/per/atom 1
Created orthogonal box = (-40 -40 -40) to (40 40 40)
  1 by 1 by 1 MPI processor grid

#molecule cat_ion cation_mol.txt
mass    1  86.8 #anion
mass    2  67.0 #ring
mass    3  15.0 #methyl
mass    4  29.0 #ethyl

create_atoms 1 single  10		0.0		0.0
Created 1 atoms
  Time spent = 1.00136e-05 secs
create_atoms 2 single   0.00000000e+00  0.00000000e+00  0.00000000e+00
Created 1 atoms
  Time spent = 0.00160384 secs
create_atoms 3 single   0.00000000e+00  2.68974868e+00  3.57630574e-17
Created 1 atoms
  Time spent = 5.00679e-06 secs
create_atoms 4 single   1.77938428e+00 -2.46598438e+00  0.00000000e+00
Created 1 atoms
  Time spent = 7.15256e-06 secs

group anion  type 1
1 atoms in group anion
group ring   type 2
1 atoms in group ring
group methyl type 3
1 atoms in group methyl
group ethyl  type 4
1 atoms in group ethyl

set type 1 charge -1.0
  1 settings made for charge
set type 2 charge  0.408675
  1 settings made for charge
set type 3 charge  0.317505
  1 settings made for charge
set type 4 charge  0.273820
  1 settings made for charge

bond_coeff  1 200.0 2.689748837
bond_coeff  2 200.0 3.04931147
angle_coeff 1 200.0 144.1868904

create_bonds single/bond 1 2 3
  1 = max # of 1-2 neighbors
  0 = max # of 1-3 neighbors
  0 = max # of 1-4 neighbors
  1 = max # of special neighbors
create_bonds single/bond 2 2 4
  2 = max # of 1-2 neighbors
  1 = max # of 1-3 neighbors
  1 = max # of 1-4 neighbors
  2 = max # of special neighbors
create_bonds single/angle 1 3 2 4
  2 = max # of 1-2 neighbors
  1 = max # of 1-3 neighbors
  1 = max # of 1-4 neighbors
  2 = max # of special neighbors

## -- INTERATOMIC POTENTIALS -- #

#pair_style nm/cut 30.0
pair_style nm/cut/coul/long 20.0 30.0
################### properties to change
pair_coeff 1 1 0.04791300 0.63929619 7.20625611 12.00000000
pair_coeff 1 2 0.48759276 1.19823224 7.20625611 12.00000000
pair_coeff 1 3 0.13109901 0.56537430 7.20625611 12.00000000
pair_coeff 1 4 0.36152172 1.37797983 7.20625611 12.00000000
pair_coeff 2 2 4.96204985 2.24584555 7.20625611 12.00000000
pair_coeff 2 3 1.33414580 1.05968051 7.20625611 12.00000000
pair_coeff 2 4 3.67907187 2.58274629 7.20625611 12.00000000
pair_coeff 3 3 0.35871163 0.50000000 7.20625611 12.00000000
pair_coeff 3 4 0.98919165 1.21864386 7.20625611 12.00000000
pair_coeff 4 4 2.72781818 2.97018573 7.20625611 12.00000000

########################################

write_data solid.data pair ij
PPPM initialization ...
  using 12-bit tables for long-range coulomb (../kspace.cpp:321)
  G vector (1/distance) = 0.0299583
  grid = 2 2 2
  stencil order = 5
  estimated absolute RMS force accuracy = 0.00155756
  estimated relative force accuracy = 0.000108167
  using double precision FFTs
  3d grid and FFT values/proc = 343 8
Neighbor list info ...
  update every 1 steps, delay 0 steps, check yes
  max neighbors/atom: 2000, page size: 100000
  master list distance cutoff = 32
  ghost atom cutoff = 32
  binsize = 16, bins = 5 5 5
  1 neighbor lists, perpetual/occasional/extra = 1 0 0
  (1) pair nm/cut/coul/long, perpetual
      attributes: half, newton on
      pair build: half/bin/newton
      stencil: half/bin/3d/newton
      bin: standard

## -- PROPERTY COMPUTE -- #
compute peratom all pe/atom

##################################
## EQUILIBRATION ##
##################################
velocity  all zero linear
reset_timestep  0
timestep	1
fix	  333 all print 1 "${dist} ${theta} ${phi} ${ILpe}" file lmps_pot_ener.dat screen no

thermo   100
thermo_style custom step temp pe ke ebond press density

compute 	1 all bond/local dist engpot force omega
compute 	2 all angle/local eng theta
dump		1 all local 100 bonds.dump c_1[*]
dump		2 all local 100 angle.dump c_2[*]

# MD settings
fix frzanion anion   setforce 0.0 0.0 0.0
fix frzring  ring    setforce 0.0 0.0 0.0

label dist_loop
label theta_loop
label phi_loop

variable dist   index   3.0 4.0 5.0 6.0 7.0 8.0 9.0 10.0 12.0 15.0 20.0 30.0
variable theta  index   5.0 90.0 175.0
variable phi    index   0.0 90.0 180.0 270.0

variable  ILpe  equal pe
variable x1  equal x[1]  #anion
variable y1  equal y[1]
variable z1  equal z[1]

variable x3  equal x[3]  #methyl
variable y3  equal y[3]
variable z3  equal z[3]

variable x4  equal x[4]  #ethyl
variable y4  equal y[4]
variable z4  equal z[4]

variable dist_13 equal sqrt((v_x1-v_x3)*(v_x1-v_x3)+(v_y1-v_y3)*(v_y1-v_y3)+(v_z1-v_z3)*(v_z1-v_z3))
variable dist_14 equal sqrt((v_x1-v_x4)*(v_x1-v_x4)+(v_y1-v_y4)*(v_y1-v_y4)+(v_z1-v_z4)*(v_z1-v_z4))

variable  vxx equal sin($(v_theta/180*PI))*cos($(v_phi/180*PI))
variable  vxx equal sin(0.087266462599716473902)*cos($(v_phi/180*PI))
variable  vxx equal sin(0.087266462599716473902)*cos(0)
variable  vzz equal sin($(v_theta/180*PI))*sin($(v_phi/180*PI))
variable  vzz equal sin(0.087266462599716473902)*sin($(v_phi/180*PI))
variable  vzz equal sin(0.087266462599716473902)*sin(0)
variable  vyy equal cos($(v_theta/180*PI))
variable  vyy equal cos(0.087266462599716473902)
variable  xx equal v_dist*v_vxx
variable  yy equal v_dist*v_vyy
variable  zz equal v_dist*v_vzz

set atom 1 x ${xx} y ${yy} z ${zz}
set atom 1 x 0.261467228242975 y ${yy} z ${zz}
set atom 1 x 0.261467228242975 y 2.98858409427524 z ${zz}
set atom 1 x 0.261467228242975 y 2.98858409427524 z 0
  1 settings made for x
  1 settings made for y
  1 settings made for z

#print "minimize_condition is ${minimize}"
#
#if "(${minimize} == T) && (${dist_13} <= 5.0) && (${dist_13} <= ${dist_14}) " then #   "print 'D_13 = ${dist_13} < 5.0' " #   "fix frzmeth  methyl  setforce NULL NULL 0.0" #   "fix frzeth   ethyl   setforce 0.0 0.0 0.0" #   "minimize    0.0 1.0e-8 1000 100000"
#
#if "(${minimize} == T) && (${dist_14} <= 5.0) && (${dist_14} <= ${dist_13}) " then #   "print 'D_14 = ${dist_14} < 5.0' " #   "fix frzmeth  methyl  setforce 0.0 0.0 0.0" #   "fix frzeth   ethyl   setforce NULL NULL 0.0" #   "minimize    0.0 1.0e-8 1000 100000"

run      1
PPPM initialization ...
  using 12-bit tables for long-range coulomb (../kspace.cpp:321)
  G vector (1/distance) = 0.0299583
  grid = 2 2 2
  stencil order = 5
  estimated absolute RMS force accuracy = 0.00155756
  estimated relative force accuracy = 0.000108167
  using double precision FFTs
  3d grid and FFT values/proc = 343 8
  PPPM/cg optimization cutoff: 1e-05
  Total charged atoms: 100.0%
  Min/max charged atoms/proc: 100.0% 100.0%
Per MPI rank memory allocation (min/avg/max) = 9.869 | 9.869 | 9.869 Mbytes
Step Temp PotEng KinEng E_bond Press Density 
       0            0    2.4216068            0  0.014032111    143.02634 0.00064151289 
       1            0    2.4216068            0  0.014032111    143.02634 0.00064151289 
Loop time of 5.29289e-05 on 1 procs for 1 steps with 4 atoms

Performance: 1632377.773 ns/day, 0.000 hours/ns, 18893.261 timesteps/s
68.0% CPU use with 1 MPI tasks x no OpenMP threads

MPI task timing breakdown:
Section |  min time  |  avg time  |  max time  |%varavg| %total
---------------------------------------------------------------
Pair    | 4.0531e-06 | 4.0531e-06 | 4.0531e-06 |   0.0 |  7.66
Bond    | 1.9073e-06 | 1.9073e-06 | 1.9073e-06 |   0.0 |  3.60
Kspace  | 1.812e-05  | 1.812e-05  | 1.812e-05  |   0.0 | 34.23
Neigh   | 0          | 0          | 0          |   0.0 |  0.00
Comm    | 0          | 0          | 0          |   0.0 |  0.00
Output  | 6.1989e-06 | 6.1989e-06 | 6.1989e-06 |   0.0 | 11.71
Modify  | 1.9789e-05 | 1.9789e-05 | 1.9789e-05 |   0.0 | 37.39
Other   |            | 2.861e-06  |            |       |  5.41

Nlocal:    4 ave 4 max 4 min
Histogram: 1 0 0 0 0 0 0 0 0 0
Nghost:    0 ave 0 max 0 min
Histogram: 1 0 0 0 0 0 0 0 0 0
Neighs:    6 ave 6 max 6 min
Histogram: 1 0 0 0 0 0 0 0 0 0

Total # of neighbors = 6
Ave neighs/atom = 1.5
Ave special neighs/atom = 1.5
Neighbor list builds = 0
Dangerous builds = 0

next dist
jump lmps.inp dist_loop
label theta_loop
label phi_loop

variable dist   index   3.0 4.0 5.0 6.0 7.0 8.0 9.0 10.0 12.0 15.0 20.0 30.0
variable theta  index   5.0 90.0 175.0
variable phi    index   0.0 90.0 180.0 270.0

variable  ILpe  equal pe
variable x1  equal x[1]  #anion
variable y1  equal y[1]
variable z1  equal z[1]

variable x3  equal x[3]  #methyl
variable y3  equal y[3]
variable z3  equal z[3]

variable x4  equal x[4]  #ethyl
variable y4  equal y[4]
variable z4  equal z[4]

variable dist_13 equal sqrt((v_x1-v_x3)*(v_x1-v_x3)+(v_y1-v_y3)*(v_y1-v_y3)+(v_z1-v_z3)*(v_z1-v_z3))
variable dist_14 equal sqrt((v_x1-v_x4)*(v_x1-v_x4)+(v_y1-v_y4)*(v_y1-v_y4)+(v_z1-v_z4)*(v_z1-v_z4))

variable  vxx equal sin($(v_theta/180*PI))*cos($(v_phi/180*PI))
variable  vxx equal sin(0.087266462599716473902)*cos($(v_phi/180*PI))
variable  vxx equal sin(0.087266462599716473902)*cos(0)
variable  vzz equal sin($(v_theta/180*PI))*sin($(v_phi/180*PI))
variable  vzz equal sin(0.087266462599716473902)*sin($(v_phi/180*PI))
variable  vzz equal sin(0.087266462599716473902)*sin(0)
variable  vyy equal cos($(v_theta/180*PI))
variable  vyy equal cos(0.087266462599716473902)
variable  xx equal v_dist*v_vxx
variable  yy equal v_dist*v_vyy
variable  zz equal v_dist*v_vzz

set atom 1 x ${xx} y ${yy} z ${zz}
set atom 1 x 0.348622970990633 y ${yy} z ${zz}
set atom 1 x 0.348622970990633 y 3.98477879236698 z ${zz}
set atom 1 x 0.348622970990633 y 3.98477879236698 z 0
  1 settings made for x
  1 settings made for y
  1 settings made for z

#print "minimize_condition is ${minimize}"
#
#if "(${minimize} == T) && (${dist_13} <= 5.0) && (${dist_13} <= ${dist_14}) " then #   "print 'D_13 = ${dist_13} < 5.0' " #   "fix frzmeth  methyl  setforce NULL NULL 0.0" #   "fix frzeth   ethyl   setforce 0.0 0.0 0.0" #   "minimize    0.0 1.0e-8 1000 100000"
#
#if "(${minimize} == T) && (${dist_14} <= 5.0) && (${dist_14} <= ${dist_13}) " then #   "print 'D_14 = ${dist_14} < 5.0' " #   "fix frzmeth  methyl  setforce 0.0 0.0 0.0" #   "fix frzeth   ethyl   setforce NULL NULL 0.0" #   "minimize    0.0 1.0e-8 1000 100000"

run      1
PPPM initialization ...
  using 12-bit tables for long-range coulomb (../kspace.cpp:321)
  G vector (1/distance) = 0.0299583
  grid = 2 2 2
  stencil order = 5
  estimated absolute RMS force accuracy = 0.00155756
  estimated relative force accuracy = 0.000108167
  using double precision FFTs
  3d grid and FFT values/proc = 343 8
Per MPI rank memory allocation (min/avg/max) = 9.869 | 9.869 | 9.869 Mbytes
Step Temp PotEng KinEng E_bond Press Density 
       1            0   -2.7263444            0  0.014032111    7.7669738 0.00064151289 
       2            0   -2.7263444            0  0.014032111    7.7669738 0.00064151289 
Loop time of 4.00543e-05 on 1 procs for 1 steps with 4 atoms

Performance: 2157070.629 ns/day, 0.000 hours/ns, 24966.095 timesteps/s
99.9% CPU use with 1 MPI tasks x no OpenMP threads

MPI task timing breakdown:
Section |  min time  |  avg time  |  max time  |%varavg| %total
---------------------------------------------------------------
Pair    | 4.0531e-06 | 4.0531e-06 | 4.0531e-06 |   0.0 | 10.12
Bond    | 9.5367e-07 | 9.5367e-07 | 9.5367e-07 |   0.0 |  2.38
Kspace  | 1.2159e-05 | 1.2159e-05 | 1.2159e-05 |   0.0 | 30.36
Neigh   | 0          | 0          | 0          |   0.0 |  0.00
Comm    | 9.5367e-07 | 9.5367e-07 | 9.5367e-07 |   0.0 |  2.38
Output  | 5.0068e-06 | 5.0068e-06 | 5.0068e-06 |   0.0 | 12.50
Modify  | 1.502e-05  | 1.502e-05  | 1.502e-05  |   0.0 | 37.50
Other   |            | 1.907e-06  |            |       |  4.76

Nlocal:    4 ave 4 max 4 min
Histogram: 1 0 0 0 0 0 0 0 0 0
Nghost:    0 ave 0 max 0 min
Histogram: 1 0 0 0 0 0 0 0 0 0
Neighs:    6 ave 6 max 6 min
Histogram: 1 0 0 0 0 0 0 0 0 0

Total # of neighbors = 6
Ave neighs/atom = 1.5
Ave special neighs/atom = 1.5
Neighbor list builds = 0
Dangerous builds = 0

next dist
jump lmps.inp dist_loop
label theta_loop
label phi_loop

variable dist   index   3.0 4.0 5.0 6.0 7.0 8.0 9.0 10.0 12.0 15.0 20.0 30.0
variable theta  index   5.0 90.0 175.0
variable phi    index   0.0 90.0 180.0 270.0

variable  ILpe  equal pe
variable x1  equal x[1]  #anion
variable y1  equal y[1]
variable z1  equal z[1]

variable x3  equal x[3]  #methyl
variable y3  equal y[3]
variable z3  equal z[3]

variable x4  equal x[4]  #ethyl
variable y4  equal y[4]
variable z4  equal z[4]

variable dist_13 equal sqrt((v_x1-v_x3)*(v_x1-v_x3)+(v_y1-v_y3)*(v_y1-v_y3)+(v_z1-v_z3)*(v_z1-v_z3))
variable dist_14 equal sqrt((v_x1-v_x4)*(v_x1-v_x4)+(v_y1-v_y4)*(v_y1-v_y4)+(v_z1-v_z4)*(v_z1-v_z4))

variable  vxx equal sin($(v_theta/180*PI))*cos($(v_phi/180*PI))
variable  vxx equal sin(0.087266462599716473902)*cos($(v_phi/180*PI))
variable  vxx equal sin(0.087266462599716473902)*cos(0)
variable  vzz equal sin($(v_theta/180*PI))*sin($(v_phi/180*PI))
variable  vzz equal sin(0.087266462599716473902)*sin($(v_phi/180*PI))
variable  vzz equal sin(0.087266462599716473902)*sin(0)
variable  vyy equal cos($(v_theta/180*PI))
variable  vyy equal cos(0.087266462599716473902)
variable  xx equal v_dist*v_vxx
variable  yy equal v_dist*v_vyy
variable  zz equal v_dist*v_vzz

set atom 1 x ${xx} y ${yy} z ${zz}
set atom 1 x 0.435778713738291 y ${yy} z ${zz}
set atom 1 x 0.435778713738291 y 4.98097349045873 z ${zz}
set atom 1 x 0.435778713738291 y 4.98097349045873 z 0
  1 settings made for x
  1 settings made for y
  1 settings made for z

#print "minimize_condition is ${minimize}"
#
#if "(${minimize} == T) && (${dist_13} <= 5.0) && (${dist_13} <= ${dist_14}) " then #   "print 'D_13 = ${dist_13} < 5.0' " #   "fix frzmeth  methyl  setforce NULL NULL 0.0" #   "fix frzeth   ethyl   setforce 0.0 0.0 0.0" #   "minimize    0.0 1.0e-8 1000 100000"
#
#if "(${minimize} == T) && (${dist_14} <= 5.0) && (${dist_14} <= ${dist_13}) " then #   "print 'D_14 = ${dist_14} < 5.0' " #   "fix frzmeth  methyl  setforce 0.0 0.0 0.0" #   "fix frzeth   ethyl   setforce NULL NULL 0.0" #   "minimize    0.0 1.0e-8 1000 100000"

run      1
PPPM initialization ...
  using 12-bit tables for long-range coulomb (../kspace.cpp:321)
  G vector (1/distance) = 0.0299583
  grid = 2 2 2
  stencil order = 5
  estimated absolute RMS force accuracy = 0.00155756
  estimated relative force accuracy = 0.000108167
  using double precision FFTs
  3d grid and FFT values/proc = 343 8
Per MPI rank memory allocation (min/avg/max) = 9.869 | 9.869 | 9.869 Mbytes
Step Temp PotEng KinEng E_bond Press Density 
       2            0   -1.8168173            0  0.014032111    8.7227161 0.00064151289 
       3            0   -1.8168173            0  0.014032111    8.7227161 0.00064151289 
Loop time of 3.8147e-05 on 1 procs for 1 steps with 4 atoms

Performance: 2264924.160 ns/day, 0.000 hours/ns, 26214.400 timesteps/s
99.6% CPU use with 1 MPI tasks x no OpenMP threads

MPI task timing breakdown:
Section |  min time  |  avg time  |  max time  |%varavg| %total
---------------------------------------------------------------
Pair    | 3.8147e-06 | 3.8147e-06 | 3.8147e-06 |   0.0 | 10.00
Bond    | 9.5367e-07 | 9.5367e-07 | 9.5367e-07 |   0.0 |  2.50
Kspace  | 1.2159e-05 | 1.2159e-05 | 1.2159e-05 |   0.0 | 31.87
Neigh   | 0          | 0          | 0          |   0.0 |  0.00
Comm    | 0          | 0          | 0          |   0.0 |  0.00
Output  | 5.0068e-06 | 5.0068e-06 | 5.0068e-06 |   0.0 | 13.12
Modify  | 1.5259e-05 | 1.5259e-05 | 1.5259e-05 |   0.0 | 40.00
Other   |            | 9.537e-07  |            |       |  2.50

Nlocal:    4 ave 4 max 4 min
Histogram: 1 0 0 0 0 0 0 0 0 0
Nghost:    0 ave 0 max 0 min
Histogram: 1 0 0 0 0 0 0 0 0 0
Neighs:    6 ave 6 max 6 min
Histogram: 1 0 0 0 0 0 0 0 0 0

Total # of neighbors = 6
Ave neighs/atom = 1.5
Ave special neighs/atom = 1.5
Neighbor list builds = 0
Dangerous builds = 0

next dist
jump lmps.inp dist_loop
label theta_loop
label phi_loop

variable dist   index   3.0 4.0 5.0 6.0 7.0 8.0 9.0 10.0 12.0 15.0 20.0 30.0
variable theta  index   5.0 90.0 175.0
variable phi    index   0.0 90.0 180.0 270.0

variable  ILpe  equal pe
variable x1  equal x[1]  #anion
variable y1  equal y[1]
variable z1  equal z[1]

variable x3  equal x[3]  #methyl
variable y3  equal y[3]
variable z3  equal z[3]

variable x4  equal x[4]  #ethyl
variable y4  equal y[4]
variable z4  equal z[4]

variable dist_13 equal sqrt((v_x1-v_x3)*(v_x1-v_x3)+(v_y1-v_y3)*(v_y1-v_y3)+(v_z1-v_z3)*(v_z1-v_z3))
variable dist_14 equal sqrt((v_x1-v_x4)*(v_x1-v_x4)+(v_y1-v_y4)*(v_y1-v_y4)+(v_z1-v_z4)*(v_z1-v_z4))

variable  vxx equal sin($(v_theta/180*PI))*cos($(v_phi/180*PI))
variable  vxx equal sin(0.087266462599716473902)*cos($(v_phi/180*PI))
variable  vxx equal sin(0.087266462599716473902)*cos(0)
variable  vzz equal sin($(v_theta/180*PI))*sin($(v_phi/180*PI))
variable  vzz equal sin(0.087266462599716473902)*sin($(v_phi/180*PI))
variable  vzz equal sin(0.087266462599716473902)*sin(0)
variable  vyy equal cos($(v_theta/180*PI))
variable  vyy equal cos(0.087266462599716473902)
variable  xx equal v_dist*v_vxx
variable  yy equal v_dist*v_vyy
variable  zz equal v_dist*v_vzz

set atom 1 x ${xx} y ${yy} z ${zz}
set atom 1 x 0.522934456485949 y ${yy} z ${zz}
set atom 1 x 0.522934456485949 y 5.97716818855048 z ${zz}
set atom 1 x 0.522934456485949 y 5.97716818855048 z 0
  1 settings made for x
  1 settings made for y
  1 settings made for z

#print "minimize_condition is ${minimize}"
#
#if "(${minimize} == T) && (${dist_13} <= 5.0) && (${dist_13} <= ${dist_14}) " then #   "print 'D_13 = ${dist_13} < 5.0' " #   "fix frzmeth  methyl  setforce NULL NULL 0.0" #   "fix frzeth   ethyl   setforce 0.0 0.0 0.0" #   "minimize    0.0 1.0e-8 1000 100000"
#
#if "(${minimize} == T) && (${dist_14} <= 5.0) && (${dist_14} <= ${dist_13}) " then #   "print 'D_14 = ${dist_14} < 5.0' " #   "fix frzmeth  methyl  setforce 0.0 0.0 0.0" #   "fix frzeth   ethyl   setforce NULL NULL 0.0" #   "minimize    0.0 1.0e-8 1000 100000"

run      1
PPPM initialization ...
  using 12-bit tables for long-range coulomb (../kspace.cpp:321)
  G vector (1/distance) = 0.0299583
  grid = 2 2 2
  stencil order = 5
  estimated absolute RMS force accuracy = 0.00155756
  estimated relative force accuracy = 0.000108167
  using double precision FFTs
  3d grid and FFT values/proc = 343 8
Per MPI rank memory allocation (min/avg/max) = 9.869 | 9.869 | 9.869 Mbytes
Step Temp PotEng KinEng E_bond Press Density 
       3            0   -1.3964568            0  0.014032111    9.1637274 0.00064151289 
       4            0   -1.3964568            0  0.014032111    9.1637274 0.00064151289 
Loop time of 3.69549e-05 on 1 procs for 1 steps with 4 atoms

Performance: 2337986.230 ns/day, 0.000 hours/ns, 27060.026 timesteps/s
100.1% CPU use with 1 MPI tasks x no OpenMP threads

MPI task timing breakdown:
Section |  min time  |  avg time  |  max time  |%varavg| %total
---------------------------------------------------------------
Pair    | 2.861e-06  | 2.861e-06  | 2.861e-06  |   0.0 |  7.74
Bond    | 1.1921e-06 | 1.1921e-06 | 1.1921e-06 |   0.0 |  3.23
Kspace  | 1.1921e-05 | 1.1921e-05 | 1.1921e-05 |   0.0 | 32.26
Neigh   | 0          | 0          | 0          |   0.0 |  0.00
Comm    | 9.5367e-07 | 9.5367e-07 | 9.5367e-07 |   0.0 |  2.58
Output  | 5.0068e-06 | 5.0068e-06 | 5.0068e-06 |   0.0 | 13.55
Modify  | 1.3113e-05 | 1.3113e-05 | 1.3113e-05 |   0.0 | 35.48
Other   |            | 1.907e-06  |            |       |  5.16

Nlocal:    4 ave 4 max 4 min
Histogram: 1 0 0 0 0 0 0 0 0 0
Nghost:    0 ave 0 max 0 min
Histogram: 1 0 0 0 0 0 0 0 0 0
Neighs:    6 ave 6 max 6 min
Histogram: 1 0 0 0 0 0 0 0 0 0

Total # of neighbors = 6
Ave neighs/atom = 1.5
Ave special neighs/atom = 1.5
Neighbor list builds = 0
Dangerous builds = 0

next dist
jump lmps.inp dist_loop
label theta_loop
label phi_loop

variable dist   index   3.0 4.0 5.0 6.0 7.0 8.0 9.0 10.0 12.0 15.0 20.0 30.0
variable theta  index   5.0 90.0 175.0
variable phi    index   0.0 90.0 180.0 270.0

variable  ILpe  equal pe
variable x1  equal x[1]  #anion
variable y1  equal y[1]
variable z1  equal z[1]

variable x3  equal x[3]  #methyl
variable y3  equal y[3]
variable z3  equal z[3]

variable x4  equal x[4]  #ethyl
variable y4  equal y[4]
variable z4  equal z[4]

variable dist_13 equal sqrt((v_x1-v_x3)*(v_x1-v_x3)+(v_y1-v_y3)*(v_y1-v_y3)+(v_z1-v_z3)*(v_z1-v_z3))
variable dist_14 equal sqrt((v_x1-v_x4)*(v_x1-v_x4)+(v_y1-v_y4)*(v_y1-v_y4)+(v_z1-v_z4)*(v_z1-v_z4))

variable  vxx equal sin($(v_theta/180*PI))*cos($(v_phi/180*PI))
variable  vxx equal sin(0.087266462599716473902)*cos($(v_phi/180*PI))
variable  vxx equal sin(0.087266462599716473902)*cos(0)
variable  vzz equal sin($(v_theta/180*PI))*sin($(v_phi/180*PI))
variable  vzz equal sin(0.087266462599716473902)*sin($(v_phi/180*PI))
variable  vzz equal sin(0.087266462599716473902)*sin(0)
variable  vyy equal cos($(v_theta/180*PI))
variable  vyy equal cos(0.087266462599716473902)
variable  xx equal v_dist*v_vxx
variable  yy equal v_dist*v_vyy
variable  zz equal v_dist*v_vzz

set atom 1 x ${xx} y ${yy} z ${zz}
set atom 1 x 0.610090199233607 y ${yy} z ${zz}
set atom 1 x 0.610090199233607 y 6.97336288664222 z ${zz}
set atom 1 x 0.610090199233607 y 6.97336288664222 z 0
  1 settings made for x
  1 settings made for y
  1 settings made for z

#print "minimize_condition is ${minimize}"
#
#if "(${minimize} == T) && (${dist_13} <= 5.0) && (${dist_13} <= ${dist_14}) " then #   "print 'D_13 = ${dist_13} < 5.0' " #   "fix frzmeth  methyl  setforce NULL NULL 0.0" #   "fix frzeth   ethyl   setforce 0.0 0.0 0.0" #   "minimize    0.0 1.0e-8 1000 100000"
#
#if "(${minimize} == T) && (${dist_14} <= 5.0) && (${dist_14} <= ${dist_13}) " then #   "print 'D_14 = ${dist_14} < 5.0' " #   "fix frzmeth  methyl  setforce 0.0 0.0 0.0" #   "fix frzeth   ethyl   setforce NULL NULL 0.0" #   "minimize    0.0 1.0e-8 1000 100000"

run      1
PPPM initialization ...
  using 12-bit tables for long-range coulomb (../kspace.cpp:321)
  G vector (1/distance) = 0.0299583
  grid = 2 2 2
  stencil order = 5
  estimated absolute RMS force accuracy = 0.00155756
  estimated relative force accuracy = 0.000108167
  using double precision FFTs
  3d grid and FFT values/proc = 343 8
Per MPI rank memory allocation (min/avg/max) = 9.869 | 9.869 | 9.869 Mbytes
Step Temp PotEng KinEng E_bond Press Density 
       4            0   -1.1451583            0  0.014032111    9.4285371 0.00064151289 
       5            0   -1.1451583            0  0.014032111    9.4285371 0.00064151289 
Loop time of 3.79086e-05 on 1 procs for 1 steps with 4 atoms

Performance: 2279168.966 ns/day, 0.000 hours/ns, 26379.270 timesteps/s
73.9% CPU use with 1 MPI tasks x no OpenMP threads

MPI task timing breakdown:
Section |  min time  |  avg time  |  max time  |%varavg| %total
---------------------------------------------------------------
Pair    | 4.0531e-06 | 4.0531e-06 | 4.0531e-06 |   0.0 | 10.69
Bond    | 0          | 0          | 0          |   0.0 |  0.00
Kspace  | 1.3113e-05 | 1.3113e-05 | 1.3113e-05 |   0.0 | 34.59
Neigh   | 0          | 0          | 0          |   0.0 |  0.00
Comm    | 9.5367e-07 | 9.5367e-07 | 9.5367e-07 |   0.0 |  2.52
Output  | 5.0068e-06 | 5.0068e-06 | 5.0068e-06 |   0.0 | 13.21
Modify  | 1.2875e-05 | 1.2875e-05 | 1.2875e-05 |   0.0 | 33.96
Other   |            | 1.907e-06  |            |       |  5.03

Nlocal:    4 ave 4 max 4 min
Histogram: 1 0 0 0 0 0 0 0 0 0
Nghost:    0 ave 0 max 0 min
Histogram: 1 0 0 0 0 0 0 0 0 0
Neighs:    6 ave 6 max 6 min
Histogram: 1 0 0 0 0 0 0 0 0 0

Total # of neighbors = 6
Ave neighs/atom = 1.5
Ave special neighs/atom = 1.5
Neighbor list builds = 0
Dangerous builds = 0

next dist
jump lmps.inp dist_loop
label theta_loop
label phi_loop

variable dist   index   3.0 4.0 5.0 6.0 7.0 8.0 9.0 10.0 12.0 15.0 20.0 30.0
variable theta  index   5.0 90.0 175.0
variable phi    index   0.0 90.0 180.0 270.0

variable  ILpe  equal pe
variable x1  equal x[1]  #anion
variable y1  equal y[1]
variable z1  equal z[1]

variable x3  equal x[3]  #methyl
variable y3  equal y[3]
variable z3  equal z[3]

variable x4  equal x[4]  #ethyl
variable y4  equal y[4]
variable z4  equal z[4]

variable dist_13 equal sqrt((v_x1-v_x3)*(v_x1-v_x3)+(v_y1-v_y3)*(v_y1-v_y3)+(v_z1-v_z3)*(v_z1-v_z3))
variable dist_14 equal sqrt((v_x1-v_x4)*(v_x1-v_x4)+(v_y1-v_y4)*(v_y1-v_y4)+(v_z1-v_z4)*(v_z1-v_z4))

variable  vxx equal sin($(v_theta/180*PI))*cos($(v_phi/180*PI))
variable  vxx equal sin(0.087266462599716473902)*cos($(v_phi/180*PI))
variable  vxx equal sin(0.087266462599716473902)*cos(0)
variable  vzz equal sin($(v_theta/180*PI))*sin($(v_phi/180*PI))
variable  vzz equal sin(0.087266462599716473902)*sin($(v_phi/180*PI))
variable  vzz equal sin(0.087266462599716473902)*sin(0)
variable  vyy equal cos($(v_theta/180*PI))
variable  vyy equal cos(0.087266462599716473902)
variable  xx equal v_dist*v_vxx
variable  yy equal v_dist*v_vyy
variable  zz equal v_dist*v_vzz

set atom 1 x ${xx} y ${yy} z ${zz}
set atom 1 x 0.697245941981266 y ${yy} z ${zz}
set atom 1 x 0.697245941981266 y 7.96955758473397 z ${zz}
set atom 1 x 0.697245941981266 y 7.96955758473397 z 0
  1 settings made for x
  1 settings made for y
  1 settings made for z

#print "minimize_condition is ${minimize}"
#
#if "(${minimize} == T) && (${dist_13} <= 5.0) && (${dist_13} <= ${dist_14}) " then #   "print 'D_13 = ${dist_13} < 5.0' " #   "fix frzmeth  methyl  setforce NULL NULL 0.0" #   "fix frzeth   ethyl   setforce 0.0 0.0 0.0" #   "minimize    0.0 1.0e-8 1000 100000"
#
#if "(${minimize} == T) && (${dist_14} <= 5.0) && (${dist_14} <= ${dist_13}) " then #   "print 'D_14 = ${dist_14} < 5.0' " #   "fix frzmeth  methyl  setforce 0.0 0.0 0.0" #   "fix frzeth   ethyl   setforce NULL NULL 0.0" #   "minimize    0.0 1.0e-8 1000 100000"

run      1
PPPM initialization ...
  using 12-bit tables for long-range coulomb (../kspace.cpp:321)
  G vector (1/distance) = 0.0299583
  grid = 2 2 2
  stencil order = 5
  estimated absolute RMS force accuracy = 0.00155756
  estimated relative force accuracy = 0.000108167
  using double precision FFTs
  3d grid and FFT values/proc = 343 8
Per MPI rank memory allocation (min/avg/max) = 9.869 | 9.869 | 9.869 Mbytes
Step Temp PotEng KinEng E_bond Press Density 
       5            0  -0.97515016            0  0.014032111    9.6088518 0.00064151289 
       6            0  -0.97515016            0  0.014032111    9.6088518 0.00064151289 
Loop time of 3.91006e-05 on 1 procs for 1 steps with 4 atoms

Performance: 2209682.107 ns/day, 0.000 hours/ns, 25575.024 timesteps/s
99.7% CPU use with 1 MPI tasks x no OpenMP threads

MPI task timing breakdown:
Section |  min time  |  avg time  |  max time  |%varavg| %total
---------------------------------------------------------------
Pair    | 4.0531e-06 | 4.0531e-06 | 4.0531e-06 |   0.0 | 10.37
Bond    | 9.5367e-07 | 9.5367e-07 | 9.5367e-07 |   0.0 |  2.44
Kspace  | 1.1921e-05 | 1.1921e-05 | 1.1921e-05 |   0.0 | 30.49
Neigh   | 0          | 0          | 0          |   0.0 |  0.00
Comm    | 1.1921e-06 | 1.1921e-06 | 1.1921e-06 |   0.0 |  3.05
Output  | 5.0068e-06 | 5.0068e-06 | 5.0068e-06 |   0.0 | 12.80
Modify  | 1.2875e-05 | 1.2875e-05 | 1.2875e-05 |   0.0 | 32.93
Other   |            | 3.099e-06  |            |       |  7.93

Nlocal:    4 ave 4 max 4 min
Histogram: 1 0 0 0 0 0 0 0 0 0
Nghost:    0 ave 0 max 0 min
Histogram: 1 0 0 0 0 0 0 0 0 0
Neighs:    6 ave 6 max 6 min
Histogram: 1 0 0 0 0 0 0 0 0 0

Total # of neighbors = 6
Ave neighs/atom = 1.5
Ave special neighs/atom = 1.5
Neighbor list builds = 0
Dangerous builds = 0

next dist
jump lmps.inp dist_loop
label theta_loop
label phi_loop

variable dist   index   3.0 4.0 5.0 6.0 7.0 8.0 9.0 10.0 12.0 15.0 20.0 30.0
variable theta  index   5.0 90.0 175.0
variable phi    index   0.0 90.0 180.0 270.0

variable  ILpe  equal pe
variable x1  equal x[1]  #anion
variable y1  equal y[1]
variable z1  equal z[1]

variable x3  equal x[3]  #methyl
variable y3  equal y[3]
variable z3  equal z[3]

variable x4  equal x[4]  #ethyl
variable y4  equal y[4]
variable z4  equal z[4]

variable dist_13 equal sqrt((v_x1-v_x3)*(v_x1-v_x3)+(v_y1-v_y3)*(v_y1-v_y3)+(v_z1-v_z3)*(v_z1-v_z3))
variable dist_14 equal sqrt((v_x1-v_x4)*(v_x1-v_x4)+(v_y1-v_y4)*(v_y1-v_y4)+(v_z1-v_z4)*(v_z1-v_z4))

variable  vxx equal sin($(v_theta/180*PI))*cos($(v_phi/180*PI))
variable  vxx equal sin(0.087266462599716473902)*cos($(v_phi/180*PI))
variable  vxx equal sin(0.087266462599716473902)*cos(0)
variable  vzz equal sin($(v_theta/180*PI))*sin($(v_phi/180*PI))
variable  vzz equal sin(0.087266462599716473902)*sin($(v_phi/180*PI))
variable  vzz equal sin(0.087266462599716473902)*sin(0)
variable  vyy equal cos($(v_theta/180*PI))
variable  vyy equal cos(0.087266462599716473902)
variable  xx equal v_dist*v_vxx
variable  yy equal v_dist*v_vyy
variable  zz equal v_dist*v_vzz

set atom 1 x ${xx} y ${yy} z ${zz}
set atom 1 x 0.784401684728924 y ${yy} z ${zz}
set atom 1 x 0.784401684728924 y 8.96575228282571 z ${zz}
set atom 1 x 0.784401684728924 y 8.96575228282571 z 0
  1 settings made for x
  1 settings made for y
  1 settings made for z

#print "minimize_condition is ${minimize}"
#
#if "(${minimize} == T) && (${dist_13} <= 5.0) && (${dist_13} <= ${dist_14}) " then #   "print 'D_13 = ${dist_13} < 5.0' " #   "fix frzmeth  methyl  setforce NULL NULL 0.0" #   "fix frzeth   ethyl   setforce 0.0 0.0 0.0" #   "minimize    0.0 1.0e-8 1000 100000"
#
#if "(${minimize} == T) && (${dist_14} <= 5.0) && (${dist_14} <= ${dist_13}) " then #   "print 'D_14 = ${dist_14} < 5.0' " #   "fix frzmeth  methyl  setforce 0.0 0.0 0.0" #   "fix frzeth   ethyl   setforce NULL NULL 0.0" #   "minimize    0.0 1.0e-8 1000 100000"

run      1
PPPM initialization ...
  using 12-bit tables for long-range coulomb (../kspace.cpp:321)
  G vector (1/distance) = 0.0299583
  grid = 2 2 2
  stencil order = 5
  estimated absolute RMS force accuracy = 0.00155756
  estimated relative force accuracy = 0.000108167
  using double precision FFTs
  3d grid and FFT values/proc = 343 8
Per MPI rank memory allocation (min/avg/max) = 9.869 | 9.869 | 9.869 Mbytes
Step Temp PotEng KinEng E_bond Press Density 
       6            0   -0.8514652            0  0.014032111    9.7411431 0.00064151289 
       7            0   -0.8514652            0  0.014032111    9.7411431 0.00064151289 
Loop time of 2.09808e-05 on 1 procs for 1 steps with 4 atoms

Performance: 4118043.927 ns/day, 0.000 hours/ns, 47662.545 timesteps/s
104.9% CPU use with 1 MPI tasks x no OpenMP threads

MPI task timing breakdown:
Section |  min time  |  avg time  |  max time  |%varavg| %total
---------------------------------------------------------------
Pair    | 1.9073e-06 | 1.9073e-06 | 1.9073e-06 |   0.0 |  9.09
Bond    | 9.5367e-07 | 9.5367e-07 | 9.5367e-07 |   0.0 |  4.55
Kspace  | 6.9141e-06 | 6.9141e-06 | 6.9141e-06 |   0.0 | 32.95
Neigh   | 0          | 0          | 0          |   0.0 |  0.00
Comm    | 0          | 0          | 0          |   0.0 |  0.00
Output  | 1.9073e-06 | 1.9073e-06 | 1.9073e-06 |   0.0 |  9.09
Modify  | 8.1062e-06 | 8.1062e-06 | 8.1062e-06 |   0.0 | 38.64
Other   |            | 1.192e-06  |            |       |  5.68

Nlocal:    4 ave 4 max 4 min
Histogram: 1 0 0 0 0 0 0 0 0 0
Nghost:    1 ave 1 max 1 min
Histogram: 1 0 0 0 0 0 0 0 0 0
Neighs:    6 ave 6 max 6 min
Histogram: 1 0 0 0 0 0 0 0 0 0

Total # of neighbors = 6
Ave neighs/atom = 1.5
Ave special neighs/atom = 1.5
Neighbor list builds = 0
Dangerous builds = 0

next dist
jump lmps.inp dist_loop
label theta_loop
label phi_loop

variable dist   index   3.0 4.0 5.0 6.0 7.0 8.0 9.0 10.0 12.0 15.0 20.0 30.0
variable theta  index   5.0 90.0 175.0
variable phi    index   0.0 90.0 180.0 270.0

variable  ILpe  equal pe
variable x1  equal x[1]  #anion
variable y1  equal y[1]
variable z1  equal z[1]

variable x3  equal x[3]  #methyl
variable y3  equal y[3]
variable z3  equal z[3]

variable x4  equal x[4]  #ethyl
variable y4  equal y[4]
variable z4  equal z[4]

variable dist_13 equal sqrt((v_x1-v_x3)*(v_x1-v_x3)+(v_y1-v_y3)*(v_y1-v_y3)+(v_z1-v_z3)*(v_z1-v_z3))
variable dist_14 equal sqrt((v_x1-v_x4)*(v_x1-v_x4)+(v_y1-v_y4)*(v_y1-v_y4)+(v_z1-v_z4)*(v_z1-v_z4))

variable  vxx equal sin($(v_theta/180*PI))*cos($(v_phi/180*PI))
variable  vxx equal sin(0.087266462599716473902)*cos($(v_phi/180*PI))
variable  vxx equal sin(0.087266462599716473902)*cos(0)
variable  vzz equal sin($(v_theta/180*PI))*sin($(v_phi/180*PI))
variable  vzz equal sin(0.087266462599716473902)*sin($(v_phi/180*PI))
variable  vzz equal sin(0.087266462599716473902)*sin(0)
variable  vyy equal cos($(v_theta/180*PI))
variable  vyy equal cos(0.087266462599716473902)
variable  xx equal v_dist*v_vxx
variable  yy equal v_dist*v_vyy
variable  zz equal v_dist*v_vzz

set atom 1 x ${xx} y ${yy} z ${zz}
set atom 1 x 0.871557427476582 y ${yy} z ${zz}
set atom 1 x 0.871557427476582 y 9.96194698091746 z ${zz}
set atom 1 x 0.871557427476582 y 9.96194698091746 z 0
  1 settings made for x
  1 settings made for y
  1 settings made for z

#print "minimize_condition is ${minimize}"
#
#if "(${minimize} == T) && (${dist_13} <= 5.0) && (${dist_13} <= ${dist_14}) " then #   "print 'D_13 = ${dist_13} < 5.0' " #   "fix frzmeth  methyl  setforce NULL NULL 0.0" #   "fix frzeth   ethyl   setforce 0.0 0.0 0.0" #   "minimize    0.0 1.0e-8 1000 100000"
#
#if "(${minimize} == T) && (${dist_14} <= 5.0) && (${dist_14} <= ${dist_13}) " then #   "print 'D_14 = ${dist_14} < 5.0' " #   "fix frzmeth  methyl  setforce 0.0 0.0 0.0" #   "fix frzeth   ethyl   setforce NULL NULL 0.0" #   "minimize    0.0 1.0e-8 1000 100000"

run      1
PPPM initialization ...
  using 12-bit tables for long-range coulomb (../kspace.cpp:321)
  G vector (1/distance) = 0.0299583
  grid = 2 2 2
  stencil order = 5
  estimated absolute RMS force accuracy = 0.00155756
  estimated relative force accuracy = 0.000108167
  using double precision FFTs
  3d grid and FFT values/proc = 343 8
Per MPI rank memory allocation (min/avg/max) = 9.869 | 9.869 | 9.869 Mbytes
Step Temp PotEng KinEng E_bond Press Density 
       7            0  -0.75706178            0  0.014032111    9.8431603 0.00064151289 
       8            0  -0.75706178            0  0.014032111    9.8431603 0.00064151289 
Loop time of 2.00272e-05 on 1 procs for 1 steps with 4 atoms

Performance: 4314141.257 ns/day, 0.000 hours/ns, 49932.190 timesteps/s
104.9% CPU use with 1 MPI tasks x no OpenMP threads

MPI task timing breakdown:
Section |  min time  |  avg time  |  max time  |%varavg| %total
---------------------------------------------------------------
Pair    | 1.9073e-06 | 1.9073e-06 | 1.9073e-06 |   0.0 |  9.52
Bond    | 0          | 0          | 0          |   0.0 |  0.00
Kspace  | 6.9141e-06 | 6.9141e-06 | 6.9141e-06 |   0.0 | 34.52
Neigh   | 0          | 0          | 0          |   0.0 |  0.00
Comm    | 1.1921e-06 | 1.1921e-06 | 1.1921e-06 |   0.0 |  5.95
Output  | 1.9073e-06 | 1.9073e-06 | 1.9073e-06 |   0.0 |  9.52
Modify  | 7.1526e-06 | 7.1526e-06 | 7.1526e-06 |   0.0 | 35.71
Other   |            | 9.537e-07  |            |       |  4.76

Nlocal:    4 ave 4 max 4 min
Histogram: 1 0 0 0 0 0 0 0 0 0
Nghost:    1 ave 1 max 1 min
Histogram: 1 0 0 0 0 0 0 0 0 0
Neighs:    6 ave 6 max 6 min
Histogram: 1 0 0 0 0 0 0 0 0 0

Total # of neighbors = 6
Ave neighs/atom = 1.5
Ave special neighs/atom = 1.5
Neighbor list builds = 0
Dangerous builds = 0

next dist
jump lmps.inp dist_loop
label theta_loop
label phi_loop

variable dist   index   3.0 4.0 5.0 6.0 7.0 8.0 9.0 10.0 12.0 15.0 20.0 30.0
variable theta  index   5.0 90.0 175.0
variable phi    index   0.0 90.0 180.0 270.0

variable  ILpe  equal pe
variable x1  equal x[1]  #anion
variable y1  equal y[1]
variable z1  equal z[1]

variable x3  equal x[3]  #methyl
variable y3  equal y[3]
variable z3  equal z[3]

variable x4  equal x[4]  #ethyl
variable y4  equal y[4]
variable z4  equal z[4]

variable dist_13 equal sqrt((v_x1-v_x3)*(v_x1-v_x3)+(v_y1-v_y3)*(v_y1-v_y3)+(v_z1-v_z3)*(v_z1-v_z3))
variable dist_14 equal sqrt((v_x1-v_x4)*(v_x1-v_x4)+(v_y1-v_y4)*(v_y1-v_y4)+(v_z1-v_z4)*(v_z1-v_z4))

variable  vxx equal sin($(v_theta/180*PI))*cos($(v_phi/180*PI))
variable  vxx equal sin(0.087266462599716473902)*cos($(v_phi/180*PI))
variable  vxx equal sin(0.087266462599716473902)*cos(0)
variable  vzz equal sin($(v_theta/180*PI))*sin($(v_phi/180*PI))
variable  vzz equal sin(0.087266462599716473902)*sin($(v_phi/180*PI))
variable  vzz equal sin(0.087266462599716473902)*sin(0)
variable  vyy equal cos($(v_theta/180*PI))
variable  vyy equal cos(0.087266462599716473902)
variable  xx equal v_dist*v_vxx
variable  yy equal v_dist*v_vyy
variable  zz equal v_dist*v_vzz

set atom 1 x ${xx} y ${yy} z ${zz}
set atom 1 x 1.0458689129719 y ${yy} z ${zz}
set atom 1 x 1.0458689129719 y 11.954336377101 z ${zz}
set atom 1 x 1.0458689129719 y 11.954336377101 z 0
  1 settings made for x
  1 settings made for y
  1 settings made for z

#print "minimize_condition is ${minimize}"
#
#if "(${minimize} == T) && (${dist_13} <= 5.0) && (${dist_13} <= ${dist_14}) " then #   "print 'D_13 = ${dist_13} < 5.0' " #   "fix frzmeth  methyl  setforce NULL NULL 0.0" #   "fix frzeth   ethyl   setforce 0.0 0.0 0.0" #   "minimize    0.0 1.0e-8 1000 100000"
#
#if "(${minimize} == T) && (${dist_14} <= 5.0) && (${dist_14} <= ${dist_13}) " then #   "print 'D_14 = ${dist_14} < 5.0' " #   "fix frzmeth  methyl  setforce 0.0 0.0 0.0" #   "fix frzeth   ethyl   setforce NULL NULL 0.0" #   "minimize    0.0 1.0e-8 1000 100000"

run      1
PPPM initialization ...
  using 12-bit tables for long-range coulomb (../kspace.cpp:321)
  G vector (1/distance) = 0.0299583
  grid = 2 2 2
  stencil order = 5
  estimated absolute RMS force accuracy = 0.00155756
  estimated relative force accuracy = 0.000108167
  using double precision FFTs
  3d grid and FFT values/proc = 343 8
Per MPI rank memory allocation (min/avg/max) = 9.869 | 9.869 | 9.869 Mbytes
Step Temp PotEng KinEng E_bond Press Density 
       8            0   -0.6221172            0  0.014032111    9.9916802 0.00064151289 
       9            0   -0.6221172            0  0.014032111    9.9916802 0.00064151289 
Loop time of 2.00272e-05 on 1 procs for 1 steps with 4 atoms

Performance: 4314141.257 ns/day, 0.000 hours/ns, 49932.190 timesteps/s
104.9% CPU use with 1 MPI tasks x no OpenMP threads

MPI task timing breakdown:
Section |  min time  |  avg time  |  max time  |%varavg| %total
---------------------------------------------------------------
Pair    | 1.9073e-06 | 1.9073e-06 | 1.9073e-06 |   0.0 |  9.52
Bond    | 1.1921e-06 | 1.1921e-06 | 1.1921e-06 |   0.0 |  5.95
Kspace  | 5.9605e-06 | 5.9605e-06 | 5.9605e-06 |   0.0 | 29.76
Neigh   | 0          | 0          | 0          |   0.0 |  0.00
Comm    | 0          | 0          | 0          |   0.0 |  0.00
Output  | 2.1458e-06 | 2.1458e-06 | 2.1458e-06 |   0.0 | 10.71
Modify  | 7.8678e-06 | 7.8678e-06 | 7.8678e-06 |   0.0 | 39.29
Other   |            | 9.537e-07  |            |       |  4.76

Nlocal:    4 ave 4 max 4 min
Histogram: 1 0 0 0 0 0 0 0 0 0
Nghost:    1 ave 1 max 1 min
Histogram: 1 0 0 0 0 0 0 0 0 0
Neighs:    6 ave 6 max 6 min
Histogram: 1 0 0 0 0 0 0 0 0 0

Total # of neighbors = 6
Ave neighs/atom = 1.5
Ave special neighs/atom = 1.5
Neighbor list builds = 0
Dangerous builds = 0

next dist
jump lmps.inp dist_loop
label theta_loop
label phi_loop

variable dist   index   3.0 4.0 5.0 6.0 7.0 8.0 9.0 10.0 12.0 15.0 20.0 30.0
variable theta  index   5.0 90.0 175.0
variable phi    index   0.0 90.0 180.0 270.0

variable  ILpe  equal pe
variable x1  equal x[1]  #anion
variable y1  equal y[1]
variable z1  equal z[1]

variable x3  equal x[3]  #methyl
variable y3  equal y[3]
variable z3  equal z[3]

variable x4  equal x[4]  #ethyl
variable y4  equal y[4]
variable z4  equal z[4]

variable dist_13 equal sqrt((v_x1-v_x3)*(v_x1-v_x3)+(v_y1-v_y3)*(v_y1-v_y3)+(v_z1-v_z3)*(v_z1-v_z3))
variable dist_14 equal sqrt((v_x1-v_x4)*(v_x1-v_x4)+(v_y1-v_y4)*(v_y1-v_y4)+(v_z1-v_z4)*(v_z1-v_z4))

variable  vxx equal sin($(v_theta/180*PI))*cos($(v_phi/180*PI))
variable  vxx equal sin(0.087266462599716473902)*cos($(v_phi/180*PI))
variable  vxx equal sin(0.087266462599716473902)*cos(0)
variable  vzz equal sin($(v_theta/180*PI))*sin($(v_phi/180*PI))
variable  vzz equal sin(0.087266462599716473902)*sin($(v_phi/180*PI))
variable  vzz equal sin(0.087266462599716473902)*sin(0)
variable  vyy equal cos($(v_theta/180*PI))
variable  vyy equal cos(0.087266462599716473902)
variable  xx equal v_dist*v_vxx
variable  yy equal v_dist*v_vyy
variable  zz equal v_dist*v_vzz

set atom 1 x ${xx} y ${yy} z ${zz}
set atom 1 x 1.30733614121487 y ${yy} z ${zz}
set atom 1 x 1.30733614121487 y 14.9429204713762 z ${zz}
set atom 1 x 1.30733614121487 y 14.9429204713762 z 0
  1 settings made for x
  1 settings made for y
  1 settings made for z

#print "minimize_condition is ${minimize}"
#
#if "(${minimize} == T) && (${dist_13} <= 5.0) && (${dist_13} <= ${dist_14}) " then #   "print 'D_13 = ${dist_13} < 5.0' " #   "fix frzmeth  methyl  setforce NULL NULL 0.0" #   "fix frzeth   ethyl   setforce 0.0 0.0 0.0" #   "minimize    0.0 1.0e-8 1000 100000"
#
#if "(${minimize} == T) && (${dist_14} <= 5.0) && (${dist_14} <= ${dist_13}) " then #   "print 'D_14 = ${dist_14} < 5.0' " #   "fix frzmeth  methyl  setforce 0.0 0.0 0.0" #   "fix frzeth   ethyl   setforce NULL NULL 0.0" #   "minimize    0.0 1.0e-8 1000 100000"

run      1
PPPM initialization ...
  using 12-bit tables for long-range coulomb (../kspace.cpp:321)
  G vector (1/distance) = 0.0299583
  grid = 2 2 2
  stencil order = 5
  estimated absolute RMS force accuracy = 0.00155756
  estimated relative force accuracy = 0.000108167
  using double precision FFTs
  3d grid and FFT values/proc = 343 8
Per MPI rank memory allocation (min/avg/max) = 9.869 | 9.869 | 9.869 Mbytes
Step Temp PotEng KinEng E_bond Press Density 
       9            0  -0.49469731            0  0.014032111    10.137348 0.00064151289 
      10            0  -0.49469731            0  0.014032111    10.137348 0.00064151289 
Loop time of 2.00272e-05 on 1 procs for 1 steps with 4 atoms

Performance: 4314141.257 ns/day, 0.000 hours/ns, 49932.190 timesteps/s
104.9% CPU use with 1 MPI tasks x no OpenMP threads

MPI task timing breakdown:
Section |  min time  |  avg time  |  max time  |%varavg| %total
---------------------------------------------------------------
Pair    | 9.5367e-07 | 9.5367e-07 | 9.5367e-07 |   0.0 |  4.76
Bond    | 9.5367e-07 | 9.5367e-07 | 9.5367e-07 |   0.0 |  4.76
Kspace  | 6.1989e-06 | 6.1989e-06 | 6.1989e-06 |   0.0 | 30.95
Neigh   | 0          | 0          | 0          |   0.0 |  0.00
Comm    | 1.9073e-06 | 1.9073e-06 | 1.9073e-06 |   0.0 |  9.52
Output  | 3.0994e-06 | 3.0994e-06 | 3.0994e-06 |   0.0 | 15.48
Modify  | 6.9141e-06 | 6.9141e-06 | 6.9141e-06 |   0.0 | 34.52
Other   |            | 0          |            |       |  0.00

Nlocal:    4 ave 4 max 4 min
Histogram: 1 0 0 0 0 0 0 0 0 0
Nghost:    1 ave 1 max 1 min
Histogram: 1 0 0 0 0 0 0 0 0 0
Neighs:    6 ave 6 max 6 min
Histogram: 1 0 0 0 0 0 0 0 0 0

Total # of neighbors = 6
Ave neighs/atom = 1.5
Ave special neighs/atom = 1.5
Neighbor list builds = 0
Dangerous builds = 0

next dist
jump lmps.inp dist_loop
label theta_loop
label phi_loop

variable dist   index   3.0 4.0 5.0 6.0 7.0 8.0 9.0 10.0 12.0 15.0 20.0 30.0
variable theta  index   5.0 90.0 175.0
variable phi    index   0.0 90.0 180.0 270.0

variable  ILpe  equal pe
variable x1  equal x[1]  #anion
variable y1  equal y[1]
variable z1  equal z[1]

variable x3  equal x[3]  #methyl
variable y3  equal y[3]
variable z3  equal z[3]

variable x4  equal x[4]  #ethyl
variable y4  equal y[4]
variable z4  equal z[4]

variable dist_13 equal sqrt((v_x1-v_x3)*(v_x1-v_x3)+(v_y1-v_y3)*(v_y1-v_y3)+(v_z1-v_z3)*(v_z1-v_z3))
variable dist_14 equal sqrt((v_x1-v_x4)*(v_x1-v_x4)+(v_y1-v_y4)*(v_y1-v_y4)+(v_z1-v_z4)*(v_z1-v_z4))

variable  vxx equal sin($(v_theta/180*PI))*cos($(v_phi/180*PI))
variable  vxx equal sin(0.087266462599716473902)*cos($(v_phi/180*PI))
variable  vxx equal sin(0.087266462599716473902)*cos(0)
variable  vzz equal sin($(v_theta/180*PI))*sin($(v_phi/180*PI))
variable  vzz equal sin(0.087266462599716473902)*sin($(v_phi/180*PI))
variable  vzz equal sin(0.087266462599716473902)*sin(0)
variable  vyy equal cos($(v_theta/180*PI))
variable  vyy equal cos(0.087266462599716473902)
variable  xx equal v_dist*v_vxx
variable  yy equal v_dist*v_vyy
variable  zz equal v_dist*v_vzz

set atom 1 x ${xx} y ${yy} z ${zz}
set atom 1 x 1.74311485495316 y ${yy} z ${zz}
set atom 1 x 1.74311485495316 y 19.9238939618349 z ${zz}
set atom 1 x 1.74311485495316 y 19.9238939618349 z 0
  1 settings made for x
  1 settings made for y
  1 settings made for z

#print "minimize_condition is ${minimize}"
#
#if "(${minimize} == T) && (${dist_13} <= 5.0) && (${dist_13} <= ${dist_14}) " then #   "print 'D_13 = ${dist_13} < 5.0' " #   "fix frzmeth  methyl  setforce NULL NULL 0.0" #   "fix frzeth   ethyl   setforce 0.0 0.0 0.0" #   "minimize    0.0 1.0e-8 1000 100000"
#
#if "(${minimize} == T) && (${dist_14} <= 5.0) && (${dist_14} <= ${dist_13}) " then #   "print 'D_14 = ${dist_14} < 5.0' " #   "fix frzmeth  methyl  setforce 0.0 0.0 0.0" #   "fix frzeth   ethyl   setforce NULL NULL 0.0" #   "minimize    0.0 1.0e-8 1000 100000"

run      1
PPPM initialization ...
  using 12-bit tables for long-range coulomb (../kspace.cpp:321)
  G vector (1/distance) = 0.0299583
  grid = 2 2 2
  stencil order = 5
  estimated absolute RMS force accuracy = 0.00155756
  estimated relative force accuracy = 0.000108167
  using double precision FFTs
  3d grid and FFT values/proc = 343 8
Per MPI rank memory allocation (min/avg/max) = 9.869 | 9.869 | 9.869 Mbytes
Step Temp PotEng KinEng E_bond Press Density 
      10            0  -0.37576814            0  0.014032111    10.283383 0.00064151289 
      11            0  -0.37576814            0  0.014032111    10.283383 0.00064151289 
Loop time of 2.09808e-05 on 1 procs for 1 steps with 4 atoms

Performance: 4118043.927 ns/day, 0.000 hours/ns, 47662.545 timesteps/s
95.3% CPU use with 1 MPI tasks x no OpenMP threads

MPI task timing breakdown:
Section |  min time  |  avg time  |  max time  |%varavg| %total
---------------------------------------------------------------
Pair    | 2.1458e-06 | 2.1458e-06 | 2.1458e-06 |   0.0 | 10.23
Bond    | 0          | 0          | 0          |   0.0 |  0.00
Kspace  | 6.9141e-06 | 6.9141e-06 | 6.9141e-06 |   0.0 | 32.95
Neigh   | 0          | 0          | 0          |   0.0 |  0.00
Comm    | 0          | 0          | 0          |   0.0 |  0.00
Output  | 3.0994e-06 | 3.0994e-06 | 3.0994e-06 |   0.0 | 14.77
Modify  | 6.9141e-06 | 6.9141e-06 | 6.9141e-06 |   0.0 | 32.95
Other   |            | 1.907e-06  |            |       |  9.09

Nlocal:    4 ave 4 max 4 min
Histogram: 1 0 0 0 0 0 0 0 0 0
Nghost:    1 ave 1 max 1 min
Histogram: 1 0 0 0 0 0 0 0 0 0
Neighs:    6 ave 6 max 6 min
Histogram: 1 0 0 0 0 0 0 0 0 0

Total # of neighbors = 6
Ave neighs/atom = 1.5
Ave special neighs/atom = 1.5
Neighbor list builds = 0
Dangerous builds = 0

next dist
jump lmps.inp dist_loop
label theta_loop
label phi_loop

variable dist   index   3.0 4.0 5.0 6.0 7.0 8.0 9.0 10.0 12.0 15.0 20.0 30.0
variable theta  index   5.0 90.0 175.0
variable phi    index   0.0 90.0 180.0 270.0

variable  ILpe  equal pe
variable x1  equal x[1]  #anion
variable y1  equal y[1]
variable z1  equal z[1]

variable x3  equal x[3]  #methyl
variable y3  equal y[3]
variable z3  equal z[3]

variable x4  equal x[4]  #ethyl
variable y4  equal y[4]
variable z4  equal z[4]

variable dist_13 equal sqrt((v_x1-v_x3)*(v_x1-v_x3)+(v_y1-v_y3)*(v_y1-v_y3)+(v_z1-v_z3)*(v_z1-v_z3))
variable dist_14 equal sqrt((v_x1-v_x4)*(v_x1-v_x4)+(v_y1-v_y4)*(v_y1-v_y4)+(v_z1-v_z4)*(v_z1-v_z4))

variable  vxx equal sin($(v_theta/180*PI))*cos($(v_phi/180*PI))
variable  vxx equal sin(0.087266462599716473902)*cos($(v_phi/180*PI))
variable  vxx equal sin(0.087266462599716473902)*cos(0)
variable  vzz equal sin($(v_theta/180*PI))*sin($(v_phi/180*PI))
variable  vzz equal sin(0.087266462599716473902)*sin($(v_phi/180*PI))
variable  vzz equal sin(0.087266462599716473902)*sin(0)
variable  vyy equal cos($(v_theta/180*PI))
variable  vyy equal cos(0.087266462599716473902)
variable  xx equal v_dist*v_vxx
variable  yy equal v_dist*v_vyy
variable  zz equal v_dist*v_vzz

set atom 1 x ${xx} y ${yy} z ${zz}
set atom 1 x 2.61467228242975 y ${yy} z ${zz}
set atom 1 x 2.61467228242975 y 29.8858409427524 z ${zz}
set atom 1 x 2.61467228242975 y 29.8858409427524 z 0
  1 settings made for x
  1 settings made for y
  1 settings made for z

#print "minimize_condition is ${minimize}"
#
#if "(${minimize} == T) && (${dist_13} <= 5.0) && (${dist_13} <= ${dist_14}) " then #   "print 'D_13 = ${dist_13} < 5.0' " #   "fix frzmeth  methyl  setforce NULL NULL 0.0" #   "fix frzeth   ethyl   setforce 0.0 0.0 0.0" #   "minimize    0.0 1.0e-8 1000 100000"
#
#if "(${minimize} == T) && (${dist_14} <= 5.0) && (${dist_14} <= ${dist_13}) " then #   "print 'D_14 = ${dist_14} < 5.0' " #   "fix frzmeth  methyl  setforce 0.0 0.0 0.0" #   "fix frzeth   ethyl   setforce NULL NULL 0.0" #   "minimize    0.0 1.0e-8 1000 100000"

run      1
PPPM initialization ...
  using 12-bit tables for long-range coulomb (../kspace.cpp:321)
  G vector (1/distance) = 0.0299583
  grid = 2 2 2
  stencil order = 5
  estimated absolute RMS force accuracy = 0.00155756
  estimated relative force accuracy = 0.000108167
  using double precision FFTs
  3d grid and FFT values/proc = 343 8
Per MPI rank memory allocation (min/avg/max) = 9.869 | 9.869 | 9.869 Mbytes
Step Temp PotEng KinEng E_bond Press Density 
      11            0  -0.24100796            0  0.014032111    10.536982 0.00064151289 
      12            0  -0.24100796            0  0.014032111    10.536982 0.00064151289 
Loop time of 1.90735e-05 on 1 procs for 1 steps with 4 atoms

Performance: 4529848.320 ns/day, 0.000 hours/ns, 52428.800 timesteps/s
104.9% CPU use with 1 MPI tasks x no OpenMP threads

MPI task timing breakdown:
Section |  min time  |  avg time  |  max time  |%varavg| %total
---------------------------------------------------------------
Pair    | 9.5367e-07 | 9.5367e-07 | 9.5367e-07 |   0.0 |  5.00
Bond    | 9.5367e-07 | 9.5367e-07 | 9.5367e-07 |   0.0 |  5.00
Kspace  | 5.9605e-06 | 5.9605e-06 | 5.9605e-06 |   0.0 | 31.25
Neigh   | 0          | 0          | 0          |   0.0 |  0.00
Comm    | 1.1921e-06 | 1.1921e-06 | 1.1921e-06 |   0.0 |  6.25
Output  | 1.9073e-06 | 1.9073e-06 | 1.9073e-06 |   0.0 | 10.00
Modify  | 7.1526e-06 | 7.1526e-06 | 7.1526e-06 |   0.0 | 37.50
Other   |            | 9.537e-07  |            |       |  5.00

Nlocal:    4 ave 4 max 4 min
Histogram: 1 0 0 0 0 0 0 0 0 0
Nghost:    1 ave 1 max 1 min
Histogram: 1 0 0 0 0 0 0 0 0 0
Neighs:    5 ave 5 max 5 min
Histogram: 1 0 0 0 0 0 0 0 0 0

Total # of neighbors = 5
Ave neighs/atom = 1.25
Ave special neighs/atom = 1.5
Neighbor list builds = 0
Dangerous builds = 0

next dist
jump lmps.inp dist_loop

next theta
jump lmps.inp theta_loop
label phi_loop

variable dist   index   3.0 4.0 5.0 6.0 7.0 8.0 9.0 10.0 12.0 15.0 20.0 30.0
variable theta  index   5.0 90.0 175.0
variable phi    index   0.0 90.0 180.0 270.0

variable  ILpe  equal pe
variable x1  equal x[1]  #anion
variable y1  equal y[1]
variable z1  equal z[1]

variable x3  equal x[3]  #methyl
variable y3  equal y[3]
variable z3  equal z[3]

variable x4  equal x[4]  #ethyl
variable y4  equal y[4]
variable z4  equal z[4]

variable dist_13 equal sqrt((v_x1-v_x3)*(v_x1-v_x3)+(v_y1-v_y3)*(v_y1-v_y3)+(v_z1-v_z3)*(v_z1-v_z3))
variable dist_14 equal sqrt((v_x1-v_x4)*(v_x1-v_x4)+(v_y1-v_y4)*(v_y1-v_y4)+(v_z1-v_z4)*(v_z1-v_z4))

variable  vxx equal sin($(v_theta/180*PI))*cos($(v_phi/180*PI))
variable  vxx equal sin(1.570796326794896558)*cos($(v_phi/180*PI))
variable  vxx equal sin(1.570796326794896558)*cos(0)
variable  vzz equal sin($(v_theta/180*PI))*sin($(v_phi/180*PI))
variable  vzz equal sin(1.570796326794896558)*sin($(v_phi/180*PI))
variable  vzz equal sin(1.570796326794896558)*sin(0)
variable  vyy equal cos($(v_theta/180*PI))
variable  vyy equal cos(1.570796326794896558)
variable  xx equal v_dist*v_vxx
variable  yy equal v_dist*v_vyy
variable  zz equal v_dist*v_vzz

set atom 1 x ${xx} y ${yy} z ${zz}
set atom 1 x 3 y ${yy} z ${zz}
set atom 1 x 3 y 1.83697019872103e-16 z ${zz}
set atom 1 x 3 y 1.83697019872103e-16 z 0
  1 settings made for x
  1 settings made for y
  1 settings made for z

#print "minimize_condition is ${minimize}"
#
#if "(${minimize} == T) && (${dist_13} <= 5.0) && (${dist_13} <= ${dist_14}) " then #   "print 'D_13 = ${dist_13} < 5.0' " #   "fix frzmeth  methyl  setforce NULL NULL 0.0" #   "fix frzeth   ethyl   setforce 0.0 0.0 0.0" #   "minimize    0.0 1.0e-8 1000 100000"
#
#if "(${minimize} == T) && (${dist_14} <= 5.0) && (${dist_14} <= ${dist_13}) " then #   "print 'D_14 = ${dist_14} < 5.0' " #   "fix frzmeth  methyl  setforce 0.0 0.0 0.0" #   "fix frzeth   ethyl   setforce NULL NULL 0.0" #   "minimize    0.0 1.0e-8 1000 100000"

run      1
PPPM initialization ...
  using 12-bit tables for long-range coulomb (../kspace.cpp:321)
  G vector (1/distance) = 0.0299583
  grid = 2 2 2
  stencil order = 5
  estimated absolute RMS force accuracy = 0.00155756
  estimated relative force accuracy = 0.000108167
  using double precision FFTs
  3d grid and FFT values/proc = 343 8
Per MPI rank memory allocation (min/avg/max) = 9.869 | 9.869 | 9.869 Mbytes
Step Temp PotEng KinEng E_bond Press Density 
      12            0   -2.2587535            0  0.014032111    8.2093981 0.00064151289 
      13            0   -2.2587535            0  0.014032111    8.2093981 0.00064151289 
Loop time of 2.09808e-05 on 1 procs for 1 steps with 4 atoms

Performance: 4118043.927 ns/day, 0.000 hours/ns, 47662.545 timesteps/s
81.0% CPU use with 1 MPI tasks x no OpenMP threads

MPI task timing breakdown:
Section |  min time  |  avg time  |  max time  |%varavg| %total
---------------------------------------------------------------
Pair    | 2.1458e-06 | 2.1458e-06 | 2.1458e-06 |   0.0 | 10.23
Bond    | 0          | 0          | 0          |   0.0 |  0.00
Kspace  | 6.9141e-06 | 6.9141e-06 | 6.9141e-06 |   0.0 | 32.95
Neigh   | 0          | 0          | 0          |   0.0 |  0.00
Comm    | 0          | 0          | 0          |   0.0 |  0.00
Output  | 1.9073e-06 | 1.9073e-06 | 1.9073e-06 |   0.0 |  9.09
Modify  | 8.1062e-06 | 8.1062e-06 | 8.1062e-06 |   0.0 | 38.64
Other   |            | 1.907e-06  |            |       |  9.09

Nlocal:    4 ave 4 max 4 min
Histogram: 1 0 0 0 0 0 0 0 0 0
Nghost:    0 ave 0 max 0 min
Histogram: 1 0 0 0 0 0 0 0 0 0
Neighs:    6 ave 6 max 6 min
Histogram: 1 0 0 0 0 0 0 0 0 0

Total # of neighbors = 6
Ave neighs/atom = 1.5
Ave special neighs/atom = 1.5
Neighbor list builds = 0
Dangerous builds = 0

next dist
jump lmps.inp dist_loop
label theta_loop
label phi_loop

variable dist   index   3.0 4.0 5.0 6.0 7.0 8.0 9.0 10.0 12.0 15.0 20.0 30.0
variable theta  index   5.0 90.0 175.0
variable phi    index   0.0 90.0 180.0 270.0

variable  ILpe  equal pe
variable x1  equal x[1]  #anion
variable y1  equal y[1]
variable z1  equal z[1]

variable x3  equal x[3]  #methyl
variable y3  equal y[3]
variable z3  equal z[3]

variable x4  equal x[4]  #ethyl
variable y4  equal y[4]
variable z4  equal z[4]

variable dist_13 equal sqrt((v_x1-v_x3)*(v_x1-v_x3)+(v_y1-v_y3)*(v_y1-v_y3)+(v_z1-v_z3)*(v_z1-v_z3))
variable dist_14 equal sqrt((v_x1-v_x4)*(v_x1-v_x4)+(v_y1-v_y4)*(v_y1-v_y4)+(v_z1-v_z4)*(v_z1-v_z4))

variable  vxx equal sin($(v_theta/180*PI))*cos($(v_phi/180*PI))
variable  vxx equal sin(1.570796326794896558)*cos($(v_phi/180*PI))
variable  vxx equal sin(1.570796326794896558)*cos(0)
variable  vzz equal sin($(v_theta/180*PI))*sin($(v_phi/180*PI))
variable  vzz equal sin(1.570796326794896558)*sin($(v_phi/180*PI))
variable  vzz equal sin(1.570796326794896558)*sin(0)
variable  vyy equal cos($(v_theta/180*PI))
variable  vyy equal cos(1.570796326794896558)
variable  xx equal v_dist*v_vxx
variable  yy equal v_dist*v_vyy
variable  zz equal v_dist*v_vzz

set atom 1 x ${xx} y ${yy} z ${zz}
set atom 1 x 4 y ${yy} z ${zz}
set atom 1 x 4 y 2.44929359829471e-16 z ${zz}
set atom 1 x 4 y 2.44929359829471e-16 z 0
  1 settings made for x
  1 settings made for y
  1 settings made for z

#print "minimize_condition is ${minimize}"
#
#if "(${minimize} == T) && (${dist_13} <= 5.0) && (${dist_13} <= ${dist_14}) " then #   "print 'D_13 = ${dist_13} < 5.0' " #   "fix frzmeth  methyl  setforce NULL NULL 0.0" #   "fix frzeth   ethyl   setforce 0.0 0.0 0.0" #   "minimize    0.0 1.0e-8 1000 100000"
#
#if "(${minimize} == T) && (${dist_14} <= 5.0) && (${dist_14} <= ${dist_13}) " then #   "print 'D_14 = ${dist_14} < 5.0' " #   "fix frzmeth  methyl  setforce 0.0 0.0 0.0" #   "fix frzeth   ethyl   setforce NULL NULL 0.0" #   "minimize    0.0 1.0e-8 1000 100000"

run      1
PPPM initialization ...
  using 12-bit tables for long-range coulomb (../kspace.cpp:321)
  G vector (1/distance) = 0.0299583
  grid = 2 2 2
  stencil order = 5
  estimated absolute RMS force accuracy = 0.00155756
  estimated relative force accuracy = 0.000108167
  using double precision FFTs
  3d grid and FFT values/proc = 343 8
Per MPI rank memory allocation (min/avg/max) = 9.869 | 9.869 | 9.869 Mbytes
Step Temp PotEng KinEng E_bond Press Density 
      13            0   -1.7925864            0  0.014032111    8.7344651 0.00064151289 
      14            0   -1.7925864            0  0.014032111    8.7344651 0.00064151289 
Loop time of 2.5034e-05 on 1 procs for 1 steps with 4 atoms

Performance: 3451313.006 ns/day, 0.000 hours/ns, 39945.752 timesteps/s
79.9% CPU use with 1 MPI tasks x no OpenMP threads

MPI task timing breakdown:
Section |  min time  |  avg time  |  max time  |%varavg| %total
---------------------------------------------------------------
Pair    | 1.9073e-06 | 1.9073e-06 | 1.9073e-06 |   0.0 |  7.62
Bond    | 0          | 0          | 0          |   0.0 |  0.00
Kspace  | 7.1526e-06 | 7.1526e-06 | 7.1526e-06 |   0.0 | 28.57
Neigh   | 0          | 0          | 0          |   0.0 |  0.00
Comm    | 9.5367e-07 | 9.5367e-07 | 9.5367e-07 |   0.0 |  3.81
Output  | 7.1526e-06 | 7.1526e-06 | 7.1526e-06 |   0.0 | 28.57
Modify  | 6.9141e-06 | 6.9141e-06 | 6.9141e-06 |   0.0 | 27.62
Other   |            | 9.537e-07  |            |       |  3.81

Nlocal:    4 ave 4 max 4 min
Histogram: 1 0 0 0 0 0 0 0 0 0
Nghost:    0 ave 0 max 0 min
Histogram: 1 0 0 0 0 0 0 0 0 0
Neighs:    6 ave 6 max 6 min
Histogram: 1 0 0 0 0 0 0 0 0 0

Total # of neighbors = 6
Ave neighs/atom = 1.5
Ave special neighs/atom = 1.5
Neighbor list builds = 0
Dangerous builds = 0

next dist
jump lmps.inp dist_loop
label theta_loop
label phi_loop

variable dist   index   3.0 4.0 5.0 6.0 7.0 8.0 9.0 10.0 12.0 15.0 20.0 30.0
variable theta  index   5.0 90.0 175.0
variable phi    index   0.0 90.0 180.0 270.0

variable  ILpe  equal pe
variable x1  equal x[1]  #anion
variable y1  equal y[1]
variable z1  equal z[1]

variable x3  equal x[3]  #methyl
variable y3  equal y[3]
variable z3  equal z[3]

variable x4  equal x[4]  #ethyl
variable y4  equal y[4]
variable z4  equal z[4]

variable dist_13 equal sqrt((v_x1-v_x3)*(v_x1-v_x3)+(v_y1-v_y3)*(v_y1-v_y3)+(v_z1-v_z3)*(v_z1-v_z3))
variable dist_14 equal sqrt((v_x1-v_x4)*(v_x1-v_x4)+(v_y1-v_y4)*(v_y1-v_y4)+(v_z1-v_z4)*(v_z1-v_z4))

variable  vxx equal sin($(v_theta/180*PI))*cos($(v_phi/180*PI))
variable  vxx equal sin(1.570796326794896558)*cos($(v_phi/180*PI))
variable  vxx equal sin(1.570796326794896558)*cos(0)
variable  vzz equal sin($(v_theta/180*PI))*sin($(v_phi/180*PI))
variable  vzz equal sin(1.570796326794896558)*sin($(v_phi/180*PI))
variable  vzz equal sin(1.570796326794896558)*sin(0)
variable  vyy equal cos($(v_theta/180*PI))
variable  vyy equal cos(1.570796326794896558)
variable  xx equal v_dist*v_vxx
variable  yy equal v_dist*v_vyy
variable  zz equal v_dist*v_vzz

set atom 1 x ${xx} y ${yy} z ${zz}
set atom 1 x 5 y ${yy} z ${zz}
set atom 1 x 5 y 3.06161699786838e-16 z ${zz}
set atom 1 x 5 y 3.06161699786838e-16 z 0
  1 settings made for x
  1 settings made for y
  1 settings made for z

#print "minimize_condition is ${minimize}"
#
#if "(${minimize} == T) && (${dist_13} <= 5.0) && (${dist_13} <= ${dist_14}) " then #   "print 'D_13 = ${dist_13} < 5.0' " #   "fix frzmeth  methyl  setforce NULL NULL 0.0" #   "fix frzeth   ethyl   setforce 0.0 0.0 0.0" #   "minimize    0.0 1.0e-8 1000 100000"
#
#if "(${minimize} == T) && (${dist_14} <= 5.0) && (${dist_14} <= ${dist_13}) " then #   "print 'D_14 = ${dist_14} < 5.0' " #   "fix frzmeth  methyl  setforce 0.0 0.0 0.0" #   "fix frzeth   ethyl   setforce NULL NULL 0.0" #   "minimize    0.0 1.0e-8 1000 100000"

run      1
PPPM initialization ...
  using 12-bit tables for long-range coulomb (../kspace.cpp:321)
  G vector (1/distance) = 0.0299583
  grid = 2 2 2
  stencil order = 5
  estimated absolute RMS force accuracy = 0.00155756
  estimated relative force accuracy = 0.000108167
  using double precision FFTs
  3d grid and FFT values/proc = 343 8
Per MPI rank memory allocation (min/avg/max) = 9.869 | 9.869 | 9.869 Mbytes
Step Temp PotEng KinEng E_bond Press Density 
      14            0   -1.4649816            0  0.014032111    9.0868088 0.00064151289 
      15            0   -1.4649816            0  0.014032111    9.0868088 0.00064151289 
Loop time of 2.19345e-05 on 1 procs for 1 steps with 4 atoms

Performance: 3938998.539 ns/day, 0.000 hours/ns, 45590.261 timesteps/s
100.3% CPU use with 1 MPI tasks x no OpenMP threads

MPI task timing breakdown:
Section |  min time  |  avg time  |  max time  |%varavg| %total
---------------------------------------------------------------
Pair    | 2.1458e-06 | 2.1458e-06 | 2.1458e-06 |   0.0 |  9.78
Bond    | 9.5367e-07 | 9.5367e-07 | 9.5367e-07 |   0.0 |  4.35
Kspace  | 5.9605e-06 | 5.9605e-06 | 5.9605e-06 |   0.0 | 27.17
Neigh   | 0          | 0          | 0          |   0.0 |  0.00
Comm    | 0          | 0          | 0          |   0.0 |  0.00
Output  | 1.9073e-06 | 1.9073e-06 | 1.9073e-06 |   0.0 |  8.70
Modify  | 9.0599e-06 | 9.0599e-06 | 9.0599e-06 |   0.0 | 41.30
Other   |            | 1.907e-06  |            |       |  8.70

Nlocal:    4 ave 4 max 4 min
Histogram: 1 0 0 0 0 0 0 0 0 0
Nghost:    0 ave 0 max 0 min
Histogram: 1 0 0 0 0 0 0 0 0 0
Neighs:    6 ave 6 max 6 min
Histogram: 1 0 0 0 0 0 0 0 0 0

Total # of neighbors = 6
Ave neighs/atom = 1.5
Ave special neighs/atom = 1.5
Neighbor list builds = 0
Dangerous builds = 0

next dist
jump lmps.inp dist_loop
label theta_loop
label phi_loop

variable dist   index   3.0 4.0 5.0 6.0 7.0 8.0 9.0 10.0 12.0 15.0 20.0 30.0
variable theta  index   5.0 90.0 175.0
variable phi    index   0.0 90.0 180.0 270.0

variable  ILpe  equal pe
variable x1  equal x[1]  #anion
variable y1  equal y[1]
variable z1  equal z[1]

variable x3  equal x[3]  #methyl
variable y3  equal y[3]
variable z3  equal z[3]

variable x4  equal x[4]  #ethyl
variable y4  equal y[4]
variable z4  equal z[4]

variable dist_13 equal sqrt((v_x1-v_x3)*(v_x1-v_x3)+(v_y1-v_y3)*(v_y1-v_y3)+(v_z1-v_z3)*(v_z1-v_z3))
variable dist_14 equal sqrt((v_x1-v_x4)*(v_x1-v_x4)+(v_y1-v_y4)*(v_y1-v_y4)+(v_z1-v_z4)*(v_z1-v_z4))

variable  vxx equal sin($(v_theta/180*PI))*cos($(v_phi/180*PI))
variable  vxx equal sin(1.570796326794896558)*cos($(v_phi/180*PI))
variable  vxx equal sin(1.570796326794896558)*cos(0)
variable  vzz equal sin($(v_theta/180*PI))*sin($(v_phi/180*PI))
variable  vzz equal sin(1.570796326794896558)*sin($(v_phi/180*PI))
variable  vzz equal sin(1.570796326794896558)*sin(0)
variable  vyy equal cos($(v_theta/180*PI))
variable  vyy equal cos(1.570796326794896558)
variable  xx equal v_dist*v_vxx
variable  yy equal v_dist*v_vyy
variable  zz equal v_dist*v_vzz

set atom 1 x ${xx} y ${yy} z ${zz}
set atom 1 x 6 y ${yy} z ${zz}
set atom 1 x 6 y 3.67394039744206e-16 z ${zz}
set atom 1 x 6 y 3.67394039744206e-16 z 0
  1 settings made for x
  1 settings made for y
  1 settings made for z

#print "minimize_condition is ${minimize}"
#
#if "(${minimize} == T) && (${dist_13} <= 5.0) && (${dist_13} <= ${dist_14}) " then #   "print 'D_13 = ${dist_13} < 5.0' " #   "fix frzmeth  methyl  setforce NULL NULL 0.0" #   "fix frzeth   ethyl   setforce 0.0 0.0 0.0" #   "minimize    0.0 1.0e-8 1000 100000"
#
#if "(${minimize} == T) && (${dist_14} <= 5.0) && (${dist_14} <= ${dist_13}) " then #   "print 'D_14 = ${dist_14} < 5.0' " #   "fix frzmeth  methyl  setforce 0.0 0.0 0.0" #   "fix frzeth   ethyl   setforce NULL NULL 0.0" #   "minimize    0.0 1.0e-8 1000 100000"

run      1
PPPM initialization ...
  using 12-bit tables for long-range coulomb (../kspace.cpp:321)
  G vector (1/distance) = 0.0299583
  grid = 2 2 2
  stencil order = 5
  estimated absolute RMS force accuracy = 0.00155756
  estimated relative force accuracy = 0.000108167
  using double precision FFTs
  3d grid and FFT values/proc = 343 8
Per MPI rank memory allocation (min/avg/max) = 9.869 | 9.869 | 9.869 Mbytes
Step Temp PotEng KinEng E_bond Press Density 
      15            0   -1.2296039            0  0.014032111    9.3364713 0.00064151289 
      16            0   -1.2296039            0  0.014032111    9.3364713 0.00064151289 
Loop time of 2.09808e-05 on 1 procs for 1 steps with 4 atoms

Performance: 4118043.927 ns/day, 0.000 hours/ns, 47662.545 timesteps/s
100.1% CPU use with 1 MPI tasks x no OpenMP threads

MPI task timing breakdown:
Section |  min time  |  avg time  |  max time  |%varavg| %total
---------------------------------------------------------------
Pair    | 2.1458e-06 | 2.1458e-06 | 2.1458e-06 |   0.0 | 10.23
Bond    | 0          | 0          | 0          |   0.0 |  0.00
Kspace  | 6.9141e-06 | 6.9141e-06 | 6.9141e-06 |   0.0 | 32.95
Neigh   | 0          | 0          | 0          |   0.0 |  0.00
Comm    | 0          | 0          | 0          |   0.0 |  0.00
Output  | 3.0994e-06 | 3.0994e-06 | 3.0994e-06 |   0.0 | 14.77
Modify  | 6.9141e-06 | 6.9141e-06 | 6.9141e-06 |   0.0 | 32.95
Other   |            | 1.907e-06  |            |       |  9.09

Nlocal:    4 ave 4 max 4 min
Histogram: 1 0 0 0 0 0 0 0 0 0
Nghost:    0 ave 0 max 0 min
Histogram: 1 0 0 0 0 0 0 0 0 0
Neighs:    6 ave 6 max 6 min
Histogram: 1 0 0 0 0 0 0 0 0 0

Total # of neighbors = 6
Ave neighs/atom = 1.5
Ave special neighs/atom = 1.5
Neighbor list builds = 0
Dangerous builds = 0

next dist
jump lmps.inp dist_loop
label theta_loop
label phi_loop

variable dist   index   3.0 4.0 5.0 6.0 7.0 8.0 9.0 10.0 12.0 15.0 20.0 30.0
variable theta  index   5.0 90.0 175.0
variable phi    index   0.0 90.0 180.0 270.0

variable  ILpe  equal pe
variable x1  equal x[1]  #anion
variable y1  equal y[1]
variable z1  equal z[1]

variable x3  equal x[3]  #methyl
variable y3  equal y[3]
variable z3  equal z[3]

variable x4  equal x[4]  #ethyl
variable y4  equal y[4]
variable z4  equal z[4]

variable dist_13 equal sqrt((v_x1-v_x3)*(v_x1-v_x3)+(v_y1-v_y3)*(v_y1-v_y3)+(v_z1-v_z3)*(v_z1-v_z3))
variable dist_14 equal sqrt((v_x1-v_x4)*(v_x1-v_x4)+(v_y1-v_y4)*(v_y1-v_y4)+(v_z1-v_z4)*(v_z1-v_z4))

variable  vxx equal sin($(v_theta/180*PI))*cos($(v_phi/180*PI))
variable  vxx equal sin(1.570796326794896558)*cos($(v_phi/180*PI))
variable  vxx equal sin(1.570796326794896558)*cos(0)
variable  vzz equal sin($(v_theta/180*PI))*sin($(v_phi/180*PI))
variable  vzz equal sin(1.570796326794896558)*sin($(v_phi/180*PI))
variable  vzz equal sin(1.570796326794896558)*sin(0)
variable  vyy equal cos($(v_theta/180*PI))
variable  vyy equal cos(1.570796326794896558)
variable  xx equal v_dist*v_vxx
variable  yy equal v_dist*v_vyy
variable  zz equal v_dist*v_vzz

set atom 1 x ${xx} y ${yy} z ${zz}
set atom 1 x 7 y ${yy} z ${zz}
set atom 1 x 7 y 4.28626379701574e-16 z ${zz}
set atom 1 x 7 y 4.28626379701574e-16 z 0
  1 settings made for x
  1 settings made for y
  1 settings made for z

#print "minimize_condition is ${minimize}"
#
#if "(${minimize} == T) && (${dist_13} <= 5.0) && (${dist_13} <= ${dist_14}) " then #   "print 'D_13 = ${dist_13} < 5.0' " #   "fix frzmeth  methyl  setforce NULL NULL 0.0" #   "fix frzeth   ethyl   setforce 0.0 0.0 0.0" #   "minimize    0.0 1.0e-8 1000 100000"
#
#if "(${minimize} == T) && (${dist_14} <= 5.0) && (${dist_14} <= ${dist_13}) " then #   "print 'D_14 = ${dist_14} < 5.0' " #   "fix frzmeth  methyl  setforce 0.0 0.0 0.0" #   "fix frzeth   ethyl   setforce NULL NULL 0.0" #   "minimize    0.0 1.0e-8 1000 100000"

run      1
PPPM initialization ...
  using 12-bit tables for long-range coulomb (../kspace.cpp:321)
  G vector (1/distance) = 0.0299583
  grid = 2 2 2
  stencil order = 5
  estimated absolute RMS force accuracy = 0.00155756
  estimated relative force accuracy = 0.000108167
  using double precision FFTs
  3d grid and FFT values/proc = 343 8
Per MPI rank memory allocation (min/avg/max) = 9.869 | 9.869 | 9.869 Mbytes
Step Temp PotEng KinEng E_bond Press Density 
      16            0   -1.0556223            0  0.014032111    9.5209649 0.00064151289 
      17            0   -1.0556223            0  0.014032111    9.5209649 0.00064151289 
Loop time of 2.00272e-05 on 1 procs for 1 steps with 4 atoms

Performance: 4314141.257 ns/day, 0.000 hours/ns, 49932.190 timesteps/s
104.9% CPU use with 1 MPI tasks x no OpenMP threads

MPI task timing breakdown:
Section |  min time  |  avg time  |  max time  |%varavg| %total
---------------------------------------------------------------
Pair    | 2.1458e-06 | 2.1458e-06 | 2.1458e-06 |   0.0 | 10.71
Bond    | 9.5367e-07 | 9.5367e-07 | 9.5367e-07 |   0.0 |  4.76
Kspace  | 5.9605e-06 | 5.9605e-06 | 5.9605e-06 |   0.0 | 29.76
Neigh   | 0          | 0          | 0          |   0.0 |  0.00
Comm    | 0          | 0          | 0          |   0.0 |  0.00
Output  | 1.9073e-06 | 1.9073e-06 | 1.9073e-06 |   0.0 |  9.52
Modify  | 8.1062e-06 | 8.1062e-06 | 8.1062e-06 |   0.0 | 40.48
Other   |            | 9.537e-07  |            |       |  4.76

Nlocal:    4 ave 4 max 4 min
Histogram: 1 0 0 0 0 0 0 0 0 0
Nghost:    0 ave 0 max 0 min
Histogram: 1 0 0 0 0 0 0 0 0 0
Neighs:    6 ave 6 max 6 min
Histogram: 1 0 0 0 0 0 0 0 0 0

Total # of neighbors = 6
Ave neighs/atom = 1.5
Ave special neighs/atom = 1.5
Neighbor list builds = 0
Dangerous builds = 0

next dist
jump lmps.inp dist_loop
label theta_loop
label phi_loop

variable dist   index   3.0 4.0 5.0 6.0 7.0 8.0 9.0 10.0 12.0 15.0 20.0 30.0
variable theta  index   5.0 90.0 175.0
variable phi    index   0.0 90.0 180.0 270.0

variable  ILpe  equal pe
variable x1  equal x[1]  #anion
variable y1  equal y[1]
variable z1  equal z[1]

variable x3  equal x[3]  #methyl
variable y3  equal y[3]
variable z3  equal z[3]

variable x4  equal x[4]  #ethyl
variable y4  equal y[4]
variable z4  equal z[4]

variable dist_13 equal sqrt((v_x1-v_x3)*(v_x1-v_x3)+(v_y1-v_y3)*(v_y1-v_y3)+(v_z1-v_z3)*(v_z1-v_z3))
variable dist_14 equal sqrt((v_x1-v_x4)*(v_x1-v_x4)+(v_y1-v_y4)*(v_y1-v_y4)+(v_z1-v_z4)*(v_z1-v_z4))

variable  vxx equal sin($(v_theta/180*PI))*cos($(v_phi/180*PI))
variable  vxx equal sin(1.570796326794896558)*cos($(v_phi/180*PI))
variable  vxx equal sin(1.570796326794896558)*cos(0)
variable  vzz equal sin($(v_theta/180*PI))*sin($(v_phi/180*PI))
variable  vzz equal sin(1.570796326794896558)*sin($(v_phi/180*PI))
variable  vzz equal sin(1.570796326794896558)*sin(0)
variable  vyy equal cos($(v_theta/180*PI))
variable  vyy equal cos(1.570796326794896558)
variable  xx equal v_dist*v_vxx
variable  yy equal v_dist*v_vyy
variable  zz equal v_dist*v_vzz

set atom 1 x ${xx} y ${yy} z ${zz}
set atom 1 x 8 y ${yy} z ${zz}
set atom 1 x 8 y 4.89858719658942e-16 z ${zz}
set atom 1 x 8 y 4.89858719658942e-16 z 0
  1 settings made for x
  1 settings made for y
  1 settings made for z

#print "minimize_condition is ${minimize}"
#
#if "(${minimize} == T) && (${dist_13} <= 5.0) && (${dist_13} <= ${dist_14}) " then #   "print 'D_13 = ${dist_13} < 5.0' " #   "fix frzmeth  methyl  setforce NULL NULL 0.0" #   "fix frzeth   ethyl   setforce 0.0 0.0 0.0" #   "minimize    0.0 1.0e-8 1000 100000"
#
#if "(${minimize} == T) && (${dist_14} <= 5.0) && (${dist_14} <= ${dist_13}) " then #   "print 'D_14 = ${dist_14} < 5.0' " #   "fix frzmeth  methyl  setforce 0.0 0.0 0.0" #   "fix frzeth   ethyl   setforce NULL NULL 0.0" #   "minimize    0.0 1.0e-8 1000 100000"

run      1
PPPM initialization ...
  using 12-bit tables for long-range coulomb (../kspace.cpp:321)
  G vector (1/distance) = 0.0299583
  grid = 2 2 2
  stencil order = 5
  estimated absolute RMS force accuracy = 0.00155756
  estimated relative force accuracy = 0.000108167
  using double precision FFTs
  3d grid and FFT values/proc = 343 8
Per MPI rank memory allocation (min/avg/max) = 9.869 | 9.869 | 9.869 Mbytes
Step Temp PotEng KinEng E_bond Press Density 
      17            0   -0.9231818            0  0.014032111    9.6621183 0.00064151289 
      18            0   -0.9231818            0  0.014032111    9.6621183 0.00064151289 
Loop time of 2.09808e-05 on 1 procs for 1 steps with 4 atoms

Performance: 4118043.927 ns/day, 0.000 hours/ns, 47662.545 timesteps/s
100.1% CPU use with 1 MPI tasks x no OpenMP threads

MPI task timing breakdown:
Section |  min time  |  avg time  |  max time  |%varavg| %total
---------------------------------------------------------------
Pair    | 2.1458e-06 | 2.1458e-06 | 2.1458e-06 |   0.0 | 10.23
Bond    | 9.5367e-07 | 9.5367e-07 | 9.5367e-07 |   0.0 |  4.55
Kspace  | 5.9605e-06 | 5.9605e-06 | 5.9605e-06 |   0.0 | 28.41
Neigh   | 0          | 0          | 0          |   0.0 |  0.00
Comm    | 0          | 0          | 0          |   0.0 |  0.00
Output  | 1.9073e-06 | 1.9073e-06 | 1.9073e-06 |   0.0 |  9.09
Modify  | 8.1062e-06 | 8.1062e-06 | 8.1062e-06 |   0.0 | 38.64
Other   |            | 1.907e-06  |            |       |  9.09

Nlocal:    4 ave 4 max 4 min
Histogram: 1 0 0 0 0 0 0 0 0 0
Nghost:    1 ave 1 max 1 min
Histogram: 1 0 0 0 0 0 0 0 0 0
Neighs:    6 ave 6 max 6 min
Histogram: 1 0 0 0 0 0 0 0 0 0

Total # of neighbors = 6
Ave neighs/atom = 1.5
Ave special neighs/atom = 1.5
Neighbor list builds = 0
Dangerous builds = 0

next dist
jump lmps.inp dist_loop
label theta_loop
label phi_loop

variable dist   index   3.0 4.0 5.0 6.0 7.0 8.0 9.0 10.0 12.0 15.0 20.0 30.0
variable theta  index   5.0 90.0 175.0
variable phi    index   0.0 90.0 180.0 270.0

variable  ILpe  equal pe
variable x1  equal x[1]  #anion
variable y1  equal y[1]
variable z1  equal z[1]

variable x3  equal x[3]  #methyl
variable y3  equal y[3]
variable z3  equal z[3]

variable x4  equal x[4]  #ethyl
variable y4  equal y[4]
variable z4  equal z[4]

variable dist_13 equal sqrt((v_x1-v_x3)*(v_x1-v_x3)+(v_y1-v_y3)*(v_y1-v_y3)+(v_z1-v_z3)*(v_z1-v_z3))
variable dist_14 equal sqrt((v_x1-v_x4)*(v_x1-v_x4)+(v_y1-v_y4)*(v_y1-v_y4)+(v_z1-v_z4)*(v_z1-v_z4))

variable  vxx equal sin($(v_theta/180*PI))*cos($(v_phi/180*PI))
variable  vxx equal sin(1.570796326794896558)*cos($(v_phi/180*PI))
variable  vxx equal sin(1.570796326794896558)*cos(0)
variable  vzz equal sin($(v_theta/180*PI))*sin($(v_phi/180*PI))
variable  vzz equal sin(1.570796326794896558)*sin($(v_phi/180*PI))
variable  vzz equal sin(1.570796326794896558)*sin(0)
variable  vyy equal cos($(v_theta/180*PI))
variable  vyy equal cos(1.570796326794896558)
variable  xx equal v_dist*v_vxx
variable  yy equal v_dist*v_vyy
variable  zz equal v_dist*v_vzz

set atom 1 x ${xx} y ${yy} z ${zz}
set atom 1 x 9 y ${yy} z ${zz}
set atom 1 x 9 y 5.51091059616309e-16 z ${zz}
set atom 1 x 9 y 5.51091059616309e-16 z 0
  1 settings made for x
  1 settings made for y
  1 settings made for z

#print "minimize_condition is ${minimize}"
#
#if "(${minimize} == T) && (${dist_13} <= 5.0) && (${dist_13} <= ${dist_14}) " then #   "print 'D_13 = ${dist_13} < 5.0' " #   "fix frzmeth  methyl  setforce NULL NULL 0.0" #   "fix frzeth   ethyl   setforce 0.0 0.0 0.0" #   "minimize    0.0 1.0e-8 1000 100000"
#
#if "(${minimize} == T) && (${dist_14} <= 5.0) && (${dist_14} <= ${dist_13}) " then #   "print 'D_14 = ${dist_14} < 5.0' " #   "fix frzmeth  methyl  setforce 0.0 0.0 0.0" #   "fix frzeth   ethyl   setforce NULL NULL 0.0" #   "minimize    0.0 1.0e-8 1000 100000"

run      1
PPPM initialization ...
  using 12-bit tables for long-range coulomb (../kspace.cpp:321)
  G vector (1/distance) = 0.0299583
  grid = 2 2 2
  stencil order = 5
  estimated absolute RMS force accuracy = 0.00155756
  estimated relative force accuracy = 0.000108167
  using double precision FFTs
  3d grid and FFT values/proc = 343 8
Per MPI rank memory allocation (min/avg/max) = 9.869 | 9.869 | 9.869 Mbytes
Step Temp PotEng KinEng E_bond Press Density 
      18            0  -0.81964632            0  0.014032111    9.7733382 0.00064151289 
      19            0  -0.81964632            0  0.014032111    9.7733382 0.00064151289 
Loop time of 2.09808e-05 on 1 procs for 1 steps with 4 atoms

Performance: 4118043.927 ns/day, 0.000 hours/ns, 47662.545 timesteps/s
100.1% CPU use with 1 MPI tasks x no OpenMP threads

MPI task timing breakdown:
Section |  min time  |  avg time  |  max time  |%varavg| %total
---------------------------------------------------------------
Pair    | 1.9073e-06 | 1.9073e-06 | 1.9073e-06 |   0.0 |  9.09
Bond    | 0          | 0          | 0          |   0.0 |  0.00
Kspace  | 6.9141e-06 | 6.9141e-06 | 6.9141e-06 |   0.0 | 32.95
Neigh   | 0          | 0          | 0          |   0.0 |  0.00
Comm    | 0          | 0          | 0          |   0.0 |  0.00
Output  | 1.9073e-06 | 1.9073e-06 | 1.9073e-06 |   0.0 |  9.09
Modify  | 8.1062e-06 | 8.1062e-06 | 8.1062e-06 |   0.0 | 38.64
Other   |            | 2.146e-06  |            |       | 10.23

Nlocal:    4 ave 4 max 4 min
Histogram: 1 0 0 0 0 0 0 0 0 0
Nghost:    1 ave 1 max 1 min
Histogram: 1 0 0 0 0 0 0 0 0 0
Neighs:    6 ave 6 max 6 min
Histogram: 1 0 0 0 0 0 0 0 0 0

Total # of neighbors = 6
Ave neighs/atom = 1.5
Ave special neighs/atom = 1.5
Neighbor list builds = 0
Dangerous builds = 0

next dist
jump lmps.inp dist_loop
label theta_loop
label phi_loop

variable dist   index   3.0 4.0 5.0 6.0 7.0 8.0 9.0 10.0 12.0 15.0 20.0 30.0
variable theta  index   5.0 90.0 175.0
variable phi    index   0.0 90.0 180.0 270.0

variable  ILpe  equal pe
variable x1  equal x[1]  #anion
variable y1  equal y[1]
variable z1  equal z[1]

variable x3  equal x[3]  #methyl
variable y3  equal y[3]
variable z3  equal z[3]

variable x4  equal x[4]  #ethyl
variable y4  equal y[4]
variable z4  equal z[4]

variable dist_13 equal sqrt((v_x1-v_x3)*(v_x1-v_x3)+(v_y1-v_y3)*(v_y1-v_y3)+(v_z1-v_z3)*(v_z1-v_z3))
variable dist_14 equal sqrt((v_x1-v_x4)*(v_x1-v_x4)+(v_y1-v_y4)*(v_y1-v_y4)+(v_z1-v_z4)*(v_z1-v_z4))

variable  vxx equal sin($(v_theta/180*PI))*cos($(v_phi/180*PI))
variable  vxx equal sin(1.570796326794896558)*cos($(v_phi/180*PI))
variable  vxx equal sin(1.570796326794896558)*cos(0)
variable  vzz equal sin($(v_theta/180*PI))*sin($(v_phi/180*PI))
variable  vzz equal sin(1.570796326794896558)*sin($(v_phi/180*PI))
variable  vzz equal sin(1.570796326794896558)*sin(0)
variable  vyy equal cos($(v_theta/180*PI))
variable  vyy equal cos(1.570796326794896558)
variable  xx equal v_dist*v_vxx
variable  yy equal v_dist*v_vyy
variable  zz equal v_dist*v_vzz

set atom 1 x ${xx} y ${yy} z ${zz}
set atom 1 x 10 y ${yy} z ${zz}
set atom 1 x 10 y 6.12323399573677e-16 z ${zz}
set atom 1 x 10 y 6.12323399573677e-16 z 0
  1 settings made for x
  1 settings made for y
  1 settings made for z

#print "minimize_condition is ${minimize}"
#
#if "(${minimize} == T) && (${dist_13} <= 5.0) && (${dist_13} <= ${dist_14}) " then #   "print 'D_13 = ${dist_13} < 5.0' " #   "fix frzmeth  methyl  setforce NULL NULL 0.0" #   "fix frzeth   ethyl   setforce 0.0 0.0 0.0" #   "minimize    0.0 1.0e-8 1000 100000"
#
[...]
Neighbor list builds = 0
Dangerous builds = 0

next dist
jump lmps.inp dist_loop
label theta_loop
label phi_loop

variable dist   index   3.0 4.0 5.0 6.0 7.0 8.0 9.0 10.0 12.0 15.0 20.0 30.0
variable theta  index   5.0 90.0 175.0
variable phi    index   0.0 90.0 180.0 270.0

variable  ILpe  equal pe
variable x1  equal x[1]  #anion
variable y1  equal y[1]
variable z1  equal z[1]

variable x3  equal x[3]  #methyl
variable y3  equal y[3]
variable z3  equal z[3]

variable x4  equal x[4]  #ethyl
variable y4  equal y[4]
variable z4  equal z[4]

variable dist_13 equal sqrt((v_x1-v_x3)*(v_x1-v_x3)+(v_y1-v_y3)*(v_y1-v_y3)+(v_z1-v_z3)*(v_z1-v_z3))
variable dist_14 equal sqrt((v_x1-v_x4)*(v_x1-v_x4)+(v_y1-v_y4)*(v_y1-v_y4)+(v_z1-v_z4)*(v_z1-v_z4))

variable  vxx equal sin($(v_theta/180*PI))*cos($(v_phi/180*PI))
variable  vxx equal sin(3.0543261909900767392)*cos($(v_phi/180*PI))
variable  vxx equal sin(3.0543261909900767392)*cos(4.712388980384689674)
variable  vzz equal sin($(v_theta/180*PI))*sin($(v_phi/180*PI))
variable  vzz equal sin(3.0543261909900767392)*sin($(v_phi/180*PI))
variable  vzz equal sin(3.0543261909900767392)*sin(4.712388980384689674)
variable  vyy equal cos($(v_theta/180*PI))
variable  vyy equal cos(3.0543261909900767392)
variable  xx equal v_dist*v_vxx
variable  yy equal v_dist*v_vyy
variable  zz equal v_dist*v_vzz

set atom 1 x ${xx} y ${yy} z ${zz}
set atom 1 x -1.60102502074845e-16 y ${yy} z ${zz}
set atom 1 x -1.60102502074845e-16 y -9.96194698091746 z ${zz}
set atom 1 x -1.60102502074845e-16 y -9.96194698091746 z -0.871557427476582
  1 settings made for x
  1 settings made for y
  1 settings made for z

#print "minimize_condition is ${minimize}"
#
#if "(${minimize} == T) && (${dist_13} <= 5.0) && (${dist_13} <= ${dist_14}) " then #   "print 'D_13 = ${dist_13} < 5.0' " #   "fix frzmeth  methyl  setforce NULL NULL 0.0" #   "fix frzeth   ethyl   setforce 0.0 0.0 0.0" #   "minimize    0.0 1.0e-8 1000 100000"
#
#if "(${minimize} == T) && (${dist_14} <= 5.0) && (${dist_14} <= ${dist_13}) " then #   "print 'D_14 = ${dist_14} < 5.0' " #   "fix frzmeth  methyl  setforce 0.0 0.0 0.0" #   "fix frzeth   ethyl   setforce NULL NULL 0.0" #   "minimize    0.0 1.0e-8 1000 100000"

run      1
PPPM initialization ...
  using 12-bit tables for long-range coulomb (../kspace.cpp:321)
  G vector (1/distance) = 0.0299583
  grid = 2 2 2
  stencil order = 5
  estimated absolute RMS force accuracy = 0.00155756
  estimated relative force accuracy = 0.000108167
  using double precision FFTs
  3d grid and FFT values/proc = 343 8
Per MPI rank memory allocation (min/avg/max) = 9.869 | 9.869 | 9.869 Mbytes
Step Temp PotEng KinEng E_bond Press Density 
     139            0   -0.7218209            0  0.014032111    9.8815504 0.00064151289 
     140            0   -0.7218209            0  0.014032111    9.8815504 0.00064151289 
Loop time of 2.09808e-05 on 1 procs for 1 steps with 4 atoms

Performance: 4118043.927 ns/day, 0.000 hours/ns, 47662.545 timesteps/s
100.1% CPU use with 1 MPI tasks x no OpenMP threads

MPI task timing breakdown:
Section |  min time  |  avg time  |  max time  |%varavg| %total
---------------------------------------------------------------
Pair    | 1.9073e-06 | 1.9073e-06 | 1.9073e-06 |   0.0 |  9.09
Bond    | 0          | 0          | 0          |   0.0 |  0.00
Kspace  | 6.9141e-06 | 6.9141e-06 | 6.9141e-06 |   0.0 | 32.95
Neigh   | 0          | 0          | 0          |   0.0 |  0.00
Comm    | 9.5367e-07 | 9.5367e-07 | 9.5367e-07 |   0.0 |  4.55
Output  | 3.0994e-06 | 3.0994e-06 | 3.0994e-06 |   0.0 | 14.77
Modify  | 8.1062e-06 | 8.1062e-06 | 8.1062e-06 |   0.0 | 38.64
Other   |            | 0          |            |       |  0.00

Nlocal:    4 ave 4 max 4 min
Histogram: 1 0 0 0 0 0 0 0 0 0
Nghost:    1 ave 1 max 1 min
Histogram: 1 0 0 0 0 0 0 0 0 0
Neighs:    6 ave 6 max 6 min
Histogram: 1 0 0 0 0 0 0 0 0 0

Total # of neighbors = 6
Ave neighs/atom = 1.5
Ave special neighs/atom = 1.5
Neighbor list builds = 0
Dangerous builds = 0

next dist
jump lmps.inp dist_loop
label theta_loop
label phi_loop

variable dist   index   3.0 4.0 5.0 6.0 7.0 8.0 9.0 10.0 12.0 15.0 20.0 30.0
variable theta  index   5.0 90.0 175.0
variable phi    index   0.0 90.0 180.0 270.0

variable  ILpe  equal pe
variable x1  equal x[1]  #anion
variable y1  equal y[1]
variable z1  equal z[1]

variable x3  equal x[3]  #methyl
variable y3  equal y[3]
variable z3  equal z[3]

variable x4  equal x[4]  #ethyl
variable y4  equal y[4]
variable z4  equal z[4]

variable dist_13 equal sqrt((v_x1-v_x3)*(v_x1-v_x3)+(v_y1-v_y3)*(v_y1-v_y3)+(v_z1-v_z3)*(v_z1-v_z3))
variable dist_14 equal sqrt((v_x1-v_x4)*(v_x1-v_x4)+(v_y1-v_y4)*(v_y1-v_y4)+(v_z1-v_z4)*(v_z1-v_z4))

variable  vxx equal sin($(v_theta/180*PI))*cos($(v_phi/180*PI))
variable  vxx equal sin(3.0543261909900767392)*cos($(v_phi/180*PI))
variable  vxx equal sin(3.0543261909900767392)*cos(4.712388980384689674)
variable  vzz equal sin($(v_theta/180*PI))*sin($(v_phi/180*PI))
variable  vzz equal sin(3.0543261909900767392)*sin($(v_phi/180*PI))
variable  vzz equal sin(3.0543261909900767392)*sin(4.712388980384689674)
variable  vyy equal cos($(v_theta/180*PI))
variable  vyy equal cos(3.0543261909900767392)
variable  xx equal v_dist*v_vxx
variable  yy equal v_dist*v_vyy
variable  zz equal v_dist*v_vzz

set atom 1 x ${xx} y ${yy} z ${zz}
set atom 1 x -1.92123002489814e-16 y ${yy} z ${zz}
set atom 1 x -1.92123002489814e-16 y -11.954336377101 z ${zz}
set atom 1 x -1.92123002489814e-16 y -11.954336377101 z -1.0458689129719
  1 settings made for x
  1 settings made for y
  1 settings made for z

#print "minimize_condition is ${minimize}"
#
#if "(${minimize} == T) && (${dist_13} <= 5.0) && (${dist_13} <= ${dist_14}) " then #   "print 'D_13 = ${dist_13} < 5.0' " #   "fix frzmeth  methyl  setforce NULL NULL 0.0" #   "fix frzeth   ethyl   setforce 0.0 0.0 0.0" #   "minimize    0.0 1.0e-8 1000 100000"
#
#if "(${minimize} == T) && (${dist_14} <= 5.0) && (${dist_14} <= ${dist_13}) " then #   "print 'D_14 = ${dist_14} < 5.0' " #   "fix frzmeth  methyl  setforce 0.0 0.0 0.0" #   "fix frzeth   ethyl   setforce NULL NULL 0.0" #   "minimize    0.0 1.0e-8 1000 100000"

run      1
PPPM initialization ...
  using 12-bit tables for long-range coulomb (../kspace.cpp:321)
  G vector (1/distance) = 0.0299583
  grid = 2 2 2
  stencil order = 5
  estimated absolute RMS force accuracy = 0.00155756
  estimated relative force accuracy = 0.000108167
  using double precision FFTs
  3d grid and FFT values/proc = 343 8
Per MPI rank memory allocation (min/avg/max) = 9.869 | 9.869 | 9.869 Mbytes
Step Temp PotEng KinEng E_bond Press Density 
     140            0  -0.59977148            0  0.014032111     10.01689 0.00064151289 
     141            0  -0.59977148            0  0.014032111     10.01689 0.00064151289 
Loop time of 2.00272e-05 on 1 procs for 1 steps with 4 atoms

Performance: 4314141.257 ns/day, 0.000 hours/ns, 49932.190 timesteps/s
109.9% CPU use with 1 MPI tasks x no OpenMP threads

MPI task timing breakdown:
Section |  min time  |  avg time  |  max time  |%varavg| %total
---------------------------------------------------------------
Pair    | 2.861e-06  | 2.861e-06  | 2.861e-06  |   0.0 | 14.29
Bond    | 0          | 0          | 0          |   0.0 |  0.00
Kspace  | 7.1526e-06 | 7.1526e-06 | 7.1526e-06 |   0.0 | 35.71
Neigh   | 0          | 0          | 0          |   0.0 |  0.00
Comm    | 0          | 0          | 0          |   0.0 |  0.00
Output  | 3.0994e-06 | 3.0994e-06 | 3.0994e-06 |   0.0 | 15.48
Modify  | 6.9141e-06 | 6.9141e-06 | 6.9141e-06 |   0.0 | 34.52
Other   |            | 0          |            |       |  0.00

Nlocal:    4 ave 4 max 4 min
Histogram: 1 0 0 0 0 0 0 0 0 0
Nghost:    1 ave 1 max 1 min
Histogram: 1 0 0 0 0 0 0 0 0 0
Neighs:    6 ave 6 max 6 min
Histogram: 1 0 0 0 0 0 0 0 0 0

Total # of neighbors = 6
Ave neighs/atom = 1.5
Ave special neighs/atom = 1.5
Neighbor list builds = 0
Dangerous builds = 0

next dist
jump lmps.inp dist_loop
label theta_loop
label phi_loop

variable dist   index   3.0 4.0 5.0 6.0 7.0 8.0 9.0 10.0 12.0 15.0 20.0 30.0
variable theta  index   5.0 90.0 175.0
variable phi    index   0.0 90.0 180.0 270.0

variable  ILpe  equal pe
variable x1  equal x[1]  #anion
variable y1  equal y[1]
variable z1  equal z[1]

variable x3  equal x[3]  #methyl
variable y3  equal y[3]
variable z3  equal z[3]

variable x4  equal x[4]  #ethyl
variable y4  equal y[4]
variable z4  equal z[4]

variable dist_13 equal sqrt((v_x1-v_x3)*(v_x1-v_x3)+(v_y1-v_y3)*(v_y1-v_y3)+(v_z1-v_z3)*(v_z1-v_z3))
variable dist_14 equal sqrt((v_x1-v_x4)*(v_x1-v_x4)+(v_y1-v_y4)*(v_y1-v_y4)+(v_z1-v_z4)*(v_z1-v_z4))

variable  vxx equal sin($(v_theta/180*PI))*cos($(v_phi/180*PI))
variable  vxx equal sin(3.0543261909900767392)*cos($(v_phi/180*PI))
variable  vxx equal sin(3.0543261909900767392)*cos(4.712388980384689674)
variable  vzz equal sin($(v_theta/180*PI))*sin($(v_phi/180*PI))
variable  vzz equal sin(3.0543261909900767392)*sin($(v_phi/180*PI))
variable  vzz equal sin(3.0543261909900767392)*sin(4.712388980384689674)
variable  vyy equal cos($(v_theta/180*PI))
variable  vyy equal cos(3.0543261909900767392)
variable  xx equal v_dist*v_vxx
variable  yy equal v_dist*v_vyy
variable  zz equal v_dist*v_vzz

set atom 1 x ${xx} y ${yy} z ${zz}
set atom 1 x -2.40153753112267e-16 y ${yy} z ${zz}
set atom 1 x -2.40153753112267e-16 y -14.9429204713762 z ${zz}
set atom 1 x -2.40153753112267e-16 y -14.9429204713762 z -1.30733614121487
  1 settings made for x
  1 settings made for y
  1 settings made for z

#print "minimize_condition is ${minimize}"
#
#if "(${minimize} == T) && (${dist_13} <= 5.0) && (${dist_13} <= ${dist_14}) " then #   "print 'D_13 = ${dist_13} < 5.0' " #   "fix frzmeth  methyl  setforce NULL NULL 0.0" #   "fix frzeth   ethyl   setforce 0.0 0.0 0.0" #   "minimize    0.0 1.0e-8 1000 100000"
#
#if "(${minimize} == T) && (${dist_14} <= 5.0) && (${dist_14} <= ${dist_13}) " then #   "print 'D_14 = ${dist_14} < 5.0' " #   "fix frzmeth  methyl  setforce 0.0 0.0 0.0" #   "fix frzeth   ethyl   setforce NULL NULL 0.0" #   "minimize    0.0 1.0e-8 1000 100000"

run      1
PPPM initialization ...
  using 12-bit tables for long-range coulomb (../kspace.cpp:321)
  G vector (1/distance) = 0.0299583
  grid = 2 2 2
  stencil order = 5
  estimated absolute RMS force accuracy = 0.00155756
  estimated relative force accuracy = 0.000108167
  using double precision FFTs
  3d grid and FFT values/proc = 343 8
Per MPI rank memory allocation (min/avg/max) = 9.869 | 9.869 | 9.869 Mbytes
Step Temp PotEng KinEng E_bond Press Density 
     141            0   -0.4816351            0  0.014032111    10.153186 0.00064151289 
     142            0   -0.4816351            0  0.014032111    10.153186 0.00064151289 
Loop time of 2.19345e-05 on 1 procs for 1 steps with 4 atoms

Performance: 3938998.539 ns/day, 0.000 hours/ns, 45590.261 timesteps/s
100.3% CPU use with 1 MPI tasks x no OpenMP threads

MPI task timing breakdown:
Section |  min time  |  avg time  |  max time  |%varavg| %total
---------------------------------------------------------------
Pair    | 1.9073e-06 | 1.9073e-06 | 1.9073e-06 |   0.0 |  8.70
Bond    | 1.1921e-06 | 1.1921e-06 | 1.1921e-06 |   0.0 |  5.43
Kspace  | 5.9605e-06 | 5.9605e-06 | 5.9605e-06 |   0.0 | 27.17
Neigh   | 0          | 0          | 0          |   0.0 |  0.00
Comm    | 0          | 0          | 0          |   0.0 |  0.00
Output  | 3.0994e-06 | 3.0994e-06 | 3.0994e-06 |   0.0 | 14.13
Modify  | 7.8678e-06 | 7.8678e-06 | 7.8678e-06 |   0.0 | 35.87
Other   |            | 1.907e-06  |            |       |  8.70

Nlocal:    4 ave 4 max 4 min
Histogram: 1 0 0 0 0 0 0 0 0 0
Nghost:    1 ave 1 max 1 min
Histogram: 1 0 0 0 0 0 0 0 0 0
Neighs:    6 ave 6 max 6 min
Histogram: 1 0 0 0 0 0 0 0 0 0

Total # of neighbors = 6
Ave neighs/atom = 1.5
Ave special neighs/atom = 1.5
Neighbor list builds = 0
Dangerous builds = 0

next dist
jump lmps.inp dist_loop
label theta_loop
label phi_loop

variable dist   index   3.0 4.0 5.0 6.0 7.0 8.0 9.0 10.0 12.0 15.0 20.0 30.0
variable theta  index   5.0 90.0 175.0
variable phi    index   0.0 90.0 180.0 270.0

variable  ILpe  equal pe
variable x1  equal x[1]  #anion
variable y1  equal y[1]
variable z1  equal z[1]

variable x3  equal x[3]  #methyl
variable y3  equal y[3]
variable z3  equal z[3]

variable x4  equal x[4]  #ethyl
variable y4  equal y[4]
variable z4  equal z[4]

variable dist_13 equal sqrt((v_x1-v_x3)*(v_x1-v_x3)+(v_y1-v_y3)*(v_y1-v_y3)+(v_z1-v_z3)*(v_z1-v_z3))
variable dist_14 equal sqrt((v_x1-v_x4)*(v_x1-v_x4)+(v_y1-v_y4)*(v_y1-v_y4)+(v_z1-v_z4)*(v_z1-v_z4))

variable  vxx equal sin($(v_theta/180*PI))*cos($(v_phi/180*PI))
variable  vxx equal sin(3.0543261909900767392)*cos($(v_phi/180*PI))
variable  vxx equal sin(3.0543261909900767392)*cos(4.712388980384689674)
variable  vzz equal sin($(v_theta/180*PI))*sin($(v_phi/180*PI))
variable  vzz equal sin(3.0543261909900767392)*sin($(v_phi/180*PI))
variable  vzz equal sin(3.0543261909900767392)*sin(4.712388980384689674)
variable  vyy equal cos($(v_theta/180*PI))
variable  vyy equal cos(3.0543261909900767392)
variable  xx equal v_dist*v_vxx
variable  yy equal v_dist*v_vyy
variable  zz equal v_dist*v_vzz

set atom 1 x ${xx} y ${yy} z ${zz}
set atom 1 x -3.2020500414969e-16 y ${yy} z ${zz}
set atom 1 x -3.2020500414969e-16 y -19.9238939618349 z ${zz}
set atom 1 x -3.2020500414969e-16 y -19.9238939618349 z -1.74311485495316
  1 settings made for x
  1 settings made for y
  1 settings made for z

#print "minimize_condition is ${minimize}"
#
#if "(${minimize} == T) && (${dist_13} <= 5.0) && (${dist_13} <= ${dist_14}) " then #   "print 'D_13 = ${dist_13} < 5.0' " #   "fix frzmeth  methyl  setforce NULL NULL 0.0" #   "fix frzeth   ethyl   setforce 0.0 0.0 0.0" #   "minimize    0.0 1.0e-8 1000 100000"
#
#if "(${minimize} == T) && (${dist_14} <= 5.0) && (${dist_14} <= ${dist_13}) " then #   "print 'D_14 = ${dist_14} < 5.0' " #   "fix frzmeth  methyl  setforce 0.0 0.0 0.0" #   "fix frzeth   ethyl   setforce NULL NULL 0.0" #   "minimize    0.0 1.0e-8 1000 100000"

run      1
PPPM initialization ...
  using 12-bit tables for long-range coulomb (../kspace.cpp:321)
  G vector (1/distance) = 0.0299583
  grid = 2 2 2
  stencil order = 5
  estimated absolute RMS force accuracy = 0.00155756
  estimated relative force accuracy = 0.000108167
  using double precision FFTs
  3d grid and FFT values/proc = 343 8
Per MPI rank memory allocation (min/avg/max) = 9.869 | 9.869 | 9.869 Mbytes
Step Temp PotEng KinEng E_bond Press Density 
     142            0  -0.36926736            0  0.014032111    10.292682 0.00064151289 
     143            0  -0.36926736            0  0.014032111    10.292682 0.00064151289 
Loop time of 2.09808e-05 on 1 procs for 1 steps with 4 atoms

Performance: 4118043.927 ns/day, 0.000 hours/ns, 47662.545 timesteps/s
100.1% CPU use with 1 MPI tasks x no OpenMP threads

MPI task timing breakdown:
Section |  min time  |  avg time  |  max time  |%varavg| %total
---------------------------------------------------------------
Pair    | 1.1921e-06 | 1.1921e-06 | 1.1921e-06 |   0.0 |  5.68
Bond    | 9.5367e-07 | 9.5367e-07 | 9.5367e-07 |   0.0 |  4.55
Kspace  | 5.9605e-06 | 5.9605e-06 | 5.9605e-06 |   0.0 | 28.41
Neigh   | 0          | 0          | 0          |   0.0 |  0.00
Comm    | 1.9073e-06 | 1.9073e-06 | 1.9073e-06 |   0.0 |  9.09
Output  | 1.9073e-06 | 1.9073e-06 | 1.9073e-06 |   0.0 |  9.09
Modify  | 8.1062e-06 | 8.1062e-06 | 8.1062e-06 |   0.0 | 38.64
Other   |            | 9.537e-07  |            |       |  4.55

Nlocal:    4 ave 4 max 4 min
Histogram: 1 0 0 0 0 0 0 0 0 0
Nghost:    1 ave 1 max 1 min
Histogram: 1 0 0 0 0 0 0 0 0 0
Neighs:    6 ave 6 max 6 min
Histogram: 1 0 0 0 0 0 0 0 0 0

Total # of neighbors = 6
Ave neighs/atom = 1.5
Ave special neighs/atom = 1.5
Neighbor list builds = 0
Dangerous builds = 0

next dist
jump lmps.inp dist_loop
label theta_loop
label phi_loop

variable dist   index   3.0 4.0 5.0 6.0 7.0 8.0 9.0 10.0 12.0 15.0 20.0 30.0
variable theta  index   5.0 90.0 175.0
variable phi    index   0.0 90.0 180.0 270.0

variable  ILpe  equal pe
variable x1  equal x[1]  #anion
variable y1  equal y[1]
variable z1  equal z[1]

variable x3  equal x[3]  #methyl
variable y3  equal y[3]
variable z3  equal z[3]

variable x4  equal x[4]  #ethyl
variable y4  equal y[4]
variable z4  equal z[4]

variable dist_13 equal sqrt((v_x1-v_x3)*(v_x1-v_x3)+(v_y1-v_y3)*(v_y1-v_y3)+(v_z1-v_z3)*(v_z1-v_z3))
variable dist_14 equal sqrt((v_x1-v_x4)*(v_x1-v_x4)+(v_y1-v_y4)*(v_y1-v_y4)+(v_z1-v_z4)*(v_z1-v_z4))

variable  vxx equal sin($(v_theta/180*PI))*cos($(v_phi/180*PI))
variable  vxx equal sin(3.0543261909900767392)*cos($(v_phi/180*PI))
variable  vxx equal sin(3.0543261909900767392)*cos(4.712388980384689674)
variable  vzz equal sin($(v_theta/180*PI))*sin($(v_phi/180*PI))
variable  vzz equal sin(3.0543261909900767392)*sin($(v_phi/180*PI))
variable  vzz equal sin(3.0543261909900767392)*sin(4.712388980384689674)
variable  vyy equal cos($(v_theta/180*PI))
variable  vyy equal cos(3.0543261909900767392)
variable  xx equal v_dist*v_vxx
variable  yy equal v_dist*v_vyy
variable  zz equal v_dist*v_vzz

set atom 1 x ${xx} y ${yy} z ${zz}
set atom 1 x -4.80307506224535e-16 y ${yy} z ${zz}
set atom 1 x -4.80307506224535e-16 y -29.8858409427524 z ${zz}
set atom 1 x -4.80307506224535e-16 y -29.8858409427524 z -2.61467228242975
  1 settings made for x
  1 settings made for y
  1 settings made for z

#print "minimize_condition is ${minimize}"
#
#if "(${minimize} == T) && (${dist_13} <= 5.0) && (${dist_13} <= ${dist_14}) " then #   "print 'D_13 = ${dist_13} < 5.0' " #   "fix frzmeth  methyl  setforce NULL NULL 0.0" #   "fix frzeth   ethyl   setforce 0.0 0.0 0.0" #   "minimize    0.0 1.0e-8 1000 100000"
#
#if "(${minimize} == T) && (${dist_14} <= 5.0) && (${dist_14} <= ${dist_13}) " then #   "print 'D_14 = ${dist_14} < 5.0' " #   "fix frzmeth  methyl  setforce 0.0 0.0 0.0" #   "fix frzeth   ethyl   setforce NULL NULL 0.0" #   "minimize    0.0 1.0e-8 1000 100000"

run      1
PPPM initialization ...
  using 12-bit tables for long-range coulomb (../kspace.cpp:321)
  G vector (1/distance) = 0.0299583
  grid = 2 2 2
  stencil order = 5
  estimated absolute RMS force accuracy = 0.00155756
  estimated relative force accuracy = 0.000108167
  using double precision FFTs
  3d grid and FFT values/proc = 343 8
Per MPI rank memory allocation (min/avg/max) = 9.869 | 9.869 | 9.869 Mbytes
Step Temp PotEng KinEng E_bond Press Density 
     143            0  -0.23763891            0  0.014032111    10.546658 0.00064151289 
     144            0  -0.23763891            0  0.014032111    10.546658 0.00064151289 
Loop time of 2.09808e-05 on 1 procs for 1 steps with 4 atoms

Performance: 4118043.927 ns/day, 0.000 hours/ns, 47662.545 timesteps/s
100.1% CPU use with 1 MPI tasks x no OpenMP threads

MPI task timing breakdown:
Section |  min time  |  avg time  |  max time  |%varavg| %total
---------------------------------------------------------------
Pair    | 9.5367e-07 | 9.5367e-07 | 9.5367e-07 |   0.0 |  4.55
Bond    | 0          | 0          | 0          |   0.0 |  0.00
Kspace  | 7.1526e-06 | 7.1526e-06 | 7.1526e-06 |   0.0 | 34.09
Neigh   | 0          | 0          | 0          |   0.0 |  0.00
Comm    | 0          | 0          | 0          |   0.0 |  0.00
Output  | 3.0994e-06 | 3.0994e-06 | 3.0994e-06 |   0.0 | 14.77
Modify  | 7.8678e-06 | 7.8678e-06 | 7.8678e-06 |   0.0 | 37.50
Other   |            | 1.907e-06  |            |       |  9.09

Nlocal:    4 ave 4 max 4 min
Histogram: 1 0 0 0 0 0 0 0 0 0
Nghost:    1 ave 1 max 1 min
Histogram: 1 0 0 0 0 0 0 0 0 0
Neighs:    5 ave 5 max 5 min
Histogram: 1 0 0 0 0 0 0 0 0 0

Total # of neighbors = 5
Ave neighs/atom = 1.25
Ave special neighs/atom = 1.5
Neighbor list builds = 0
Dangerous builds = 0

next dist
jump lmps.inp dist_loop

next theta
jump lmps.inp theta_loop

next phi
jump lmps.inp phi_loop

Total wall time: 0:00:00
