ITEM: TIMESTEP
0
ITEM: NUMBER OF ATOMS
80
ITEM: BOX BOUNDS pp pp pp
-4.0000000000000000e+01 4.0000000000000000e+01
-4.0000000000000000e+01 4.0000000000000000e+01
-4.0000000000000000e+01 4.0000000000000000e+01
ITEM: ATOMS id mass type x y z 
78 67 2 -39.7606 -32.9289 -38.5958 
79 15 3 -38.5677 -30.9368 -39.9535 
80 29 4 39.2864 -33.8146 -35.8472 
60 67 2 18.0709 -15.2414 -33.552 
61 15 3 18.8192 -17.5833 -32.461 
62 29 4 15.7137 -13.6906 -34.6859 
30 67 2 27.8684 -15.3072 -37.487 
31 15 3 27.0469 -13.204 -38.9485 
32 29 4 30.2465 -16.5196 -36.0303 
15 86.8 1 -10.805 -0.25449 -37.2088 
40 15 3 -28.8016 18.875 -38.7411 
39 67 2 -31.0293 20.1598 -39.5295 
36 67 2 -28.4115 27.7147 -35.2537 
37 15 3 -27.6224 25.1594 -34.9669 
38 29 4 -28.6973 29.9993 -37.2402 
17 86.8 1 -5.49156 23.3027 -31.7598 
58 15 3 1.8091 22.1818 -39.0194 
4 86.8 1 -0.921555 31.4227 -38.5649 
9 86.8 1 29.0907 -33.235 -21.3637 
20 86.8 1 28.7539 -12.8915 -27.5041 
33 67 2 9.09742 -33.817 -10.2096 
35 29 4 6.61679 -34.2993 -11.9011 
6 86.8 1 23.8607 -12.786 -14.7544 
50 29 4 -4.69551 -0.787675 -18.2909 
48 67 2 -5.37584 1.57929 -16.5072 
49 15 3 -4.33667 3.64642 -15.1353 
3 86.8 1 -36.8171 14.2976 -19.4253 
34 15 3 11.5826 -34.6999 -9.68115 
24 67 2 2.73372 -12.2714 -3.20626 
25 15 3 5.07382 -12.3746 -4.5284 
26 29 4 0.486709 -13.9528 -2.03528 
71 29 4 1.81825 -11.2423 -4.2634 
51 67 2 16.1497 -11.0825 -4.00909 
52 15 3 18.8343 -11.2316 -3.93576 
53 29 4 13.5794 -12.6292 -3.51032 
70 15 3 -1.37928 -7.40213 -6.44892 
69 67 2 0.730328 -9.01645 -6.02669 
18 86.8 1 -27.1548 9.41929 -9.98672 
7 86.8 1 22.1578 5.48786 -5.50354 
2 86.8 1 7.29414 32.6479 -7.57523 
14 86.8 1 4.3055 -37.4315 9.39068 
1 86.8 1 -39.161 -19.1491 0.890539 
10 86.8 1 -19.8872 -4.86895 7.63172 
16 86.8 1 -8.07335 -8.75822 0.604183 
54 67 2 -16.0867 -30.8016 16.399 
56 29 4 -16.4474 -33.6371 17.4368 
55 15 3 -14.4377 -28.6766 16.3867 
66 67 2 -4.41535 -25.7301 10.722 
67 15 3 -6.19312 -23.7315 10.4389 
68 29 4 -1.77661 -26.5191 12.0111 
5 86.8 1 -0.514897 -13.8698 11.0873 
11 86.8 1 26.393 -12.3701 14.9609 
72 67 2 -17.765 7.00213 12.3528 
73 15 3 -15.2213 7.6051 11.7198 
74 29 4 -19.5763 4.84404 13.4971 
46 15 3 -20.9616 11.0674 10.8534 
45 67 2 -19.2047 11.3133 12.8751 
47 29 4 -17.1077 13.1354 14.112 
8 86.8 1 -17.9652 -21.7039 22.7922 
42 67 2 -1.18749 -27.4951 29.6473 
43 15 3 -3.64463 -27.1462 28.6103 
12 86.8 1 8.19587 -12.022 26.709 
22 15 3 -37.703 -3.17059 29.031 
63 67 2 10.5597 9.819 24.814 
65 29 4 10.8643 6.9113 23.9775 
64 15 3 11.8496 11.9336 25.8624 
19 86.8 1 -6.79422 -30.4281 34.6635 
44 29 4 0.514636 -29.3041 31.4017 
21 67 2 -38.1057 -3.11269 31.6898 
23 29 4 -39.7866 -4.24956 33.9546 
75 67 2 -1.49194 -2.96999 30.3131 
76 15 3 -3.43845 -1.12111 30.1472 
77 29 4 -0.739257 -5.65651 31.5228 
13 86.8 1 18.8545 7.20409 39.2077 
41 29 4 -33.8408 19.7765 39.377 
57 67 2 2.68142 23.1159 38.6138 
59 29 4 4.49549 22.5237 36.2462 
27 67 2 -14.0457 34.5657 35.9556 
28 15 3 -14.3124 35.0711 33.3272 
29 29 4 -14.9319 35.4259 38.7344 
ITEM: TIMESTEP
4
ITEM: NUMBER OF ATOMS
80
ITEM: BOX BOUNDS pp pp pp
-4.0000000000000000e+01 4.0000000000000000e+01
-4.0000000000000000e+01 4.0000000000000000e+01
-4.0000000000000000e+01 4.0000000000000000e+01
ITEM: ATOMS id mass type x y z 
78 67 2 -39.7597 -32.9278 -38.5984 
79 15 3 -38.5668 -30.9355 -39.9554 
80 29 4 39.2843 -33.8169 -35.8424 
60 67 2 18.0732 -15.243 -33.5506 
61 15 3 18.8208 -17.585 -32.4597 
62 29 4 15.7099 -13.687 -34.6881 
30 67 2 27.8663 -15.3057 -37.4882 
31 15 3 27.0454 -13.2024 -38.9498 
32 29 4 30.2505 -16.5224 -36.027 
15 86.8 1 -10.8049 -0.254445 -37.2091 
40 15 3 -28.7993 18.8743 -38.7402 
39 67 2 -31.0266 20.1596 -39.5284 
36 67 2 -28.4111 27.7125 -35.2515 
37 15 3 -27.6218 25.1574 -34.9653 
38 29 4 -28.6981 30.0041 -37.2431 
17 86.8 1 -5.49174 23.3023 -31.7602 
58 15 3 1.80758 22.1821 -39.0169 
4 86.8 1 -0.92146 31.4224 -38.5658 
9 86.8 1 29.0907 -33.2351 -21.3641 
20 86.8 1 28.7536 -12.8919 -27.5058 
33 67 2 9.10006 -33.8169 -10.2079 
35 29 4 6.61192 -34.2997 -11.9038 
6 86.8 1 23.8599 -12.7861 -14.754 
50 29 4 -4.69517 -0.792116 -18.2943 
48 67 2 -5.37643 1.58185 -16.5054 
49 15 3 -4.33668 3.64863 -15.1339 
3 86.8 1 -36.8172 14.298 -19.4259 
34 15 3 11.585 -34.7002 -9.68001 
24 67 2 2.7346 -12.269 -3.20904 
25 15 3 5.07555 -12.3735 -4.52922 
26 29 4 0.481982 -13.9547 -2.03267 
71 29 4 1.82169 -11.2471 -4.25943 
51 67 2 16.1529 -11.081 -4.0096 
52 15 3 18.8372 -11.2308 -3.93611 
53 29 4 13.5747 -12.6313 -3.50962 
70 15 3 -1.38079 -7.40055 -6.4496 
69 67 2 0.728963 -9.01475 -6.02762 
18 86.8 1 -27.1543 9.41933 -9.98643 
7 86.8 1 22.1573 5.48773 -5.50339 
2 86.8 1 7.29406 32.6483 -7.57532 
14 86.8 1 4.30511 -37.4311 9.39085 
1 86.8 1 -39.1609 -19.1493 0.890648 
10 86.8 1 -19.8872 -4.86807 7.63231 
16 86.8 1 -8.072 -8.75834 0.603125 
54 67 2 -16.0863 -30.7985 16.3982 
56 29 4 -16.4488 -33.6422 17.4383 
55 15 3 -14.437 -28.674 16.3863 
66 67 2 -4.41782 -25.7289 10.7207 
67 15 3 -6.19507 -23.7301 10.4381 
68 29 4 -1.77169 -26.5212 12.0131 
5 86.8 1 -0.51482 -13.8703 11.0869 
11 86.8 1 26.3929 -12.3701 14.9612 
72 67 2 -17.7627 7.00302 12.3513 
73 15 3 -15.219 7.60558 11.7188 
74 29 4 -19.5802 4.83975 13.499 
46 15 3 -20.9638 11.0668 10.8516 
45 67 2 -19.2074 11.3124 12.8738 
47 29 4 -17.1038 13.1386 14.1147 
8 86.8 1 -17.965 -21.7046 22.792 
42 67 2 -1.18963 -27.4935 29.6459 
43 15 3 -3.64682 -27.1452 28.6093 
12 86.8 1 8.19556 -12.0217 26.7095 
22 15 3 -37.7019 -3.17006 29.0286 
63 67 2 10.5597 9.82188 24.8149 
65 29 4 10.8642 6.90589 23.9757 
64 15 3 11.8501 11.936 25.8634 
19 86.8 1 -6.79351 -30.4279 34.6625 
44 29 4 0.518192 -29.307 31.405 
21 67 2 -38.1042 -3.11169 31.6873 
23 29 4 -39.7893 -4.25119 33.9593 
75 67 2 -1.49285 -2.96744 30.312 
76 15 3 -3.43964 -1.11907 30.1466 
77 29 4 -0.737055 -5.66155 31.5247 
13 86.8 1 18.8543 7.20412 39.2074 
41 29 4 -33.8463 19.7764 39.375 
57 67 2 2.67953 23.1166 38.6166 
59 29 4 4.49845 22.5236 36.2418 
27 67 2 -14.0447 34.5651 35.9528 
28 15 3 -14.3118 35.0709 33.3247 
29 29 4 -14.9328 35.4269 38.74 
ITEM: TIMESTEP
0
ITEM: NUMBER OF ATOMS
80
ITEM: BOX BOUNDS pp pp pp
-4.0000000000000000e+01 4.0000000000000000e+01
-4.0000000000000000e+01 4.0000000000000000e+01
-4.0000000000000000e+01 4.0000000000000000e+01
ITEM: ATOMS id mass type x y z 
78 67 2 -39.7597 -32.9278 -38.5984 
79 15 3 -38.5668 -30.9355 -39.9554 
80 29 4 39.2843 -33.8169 -35.8424 
60 67 2 18.0732 -15.243 -33.5506 
61 15 3 18.8208 -17.585 -32.4597 
62 29 4 15.7099 -13.687 -34.6881 
30 67 2 27.8663 -15.3057 -37.4882 
31 15 3 27.0454 -13.2024 -38.9498 
32 29 4 30.2505 -16.5224 -36.027 
15 86.8 1 -10.8049 -0.254445 -37.2091 
40 15 3 -28.7993 18.8743 -38.7402 
39 67 2 -31.0266 20.1596 -39.5284 
36 67 2 -28.4111 27.7125 -35.2515 
37 15 3 -27.6218 25.1574 -34.9653 
17 86.8 1 -5.49174 23.3023 -31.7602 
58 15 3 1.80758 22.1821 -39.0169 
38 29 4 -28.6981 30.0041 -37.2431 
4 86.8 1 -0.92146 31.4224 -38.5658 
9 86.8 1 29.0907 -33.2351 -21.3641 
20 86.8 1 28.7536 -12.8919 -27.5058 
33 67 2 9.10006 -33.8169 -10.2079 
35 29 4 6.61192 -34.2997 -11.9038 
6 86.8 1 23.8599 -12.7861 -14.754 
50 29 4 -4.69517 -0.792116 -18.2943 
48 67 2 -5.37643 1.58185 -16.5054 
49 15 3 -4.33668 3.64863 -15.1339 
3 86.8 1 -36.8172 14.298 -19.4259 
34 15 3 11.585 -34.7002 -9.68001 
24 67 2 2.7346 -12.269 -3.20904 
25 15 3 5.07555 -12.3735 -4.52922 
26 29 4 0.481982 -13.9547 -2.03267 
71 29 4 1.82169 -11.2471 -4.25943 
51 67 2 16.1529 -11.081 -4.0096 
52 15 3 18.8372 -11.2308 -3.93611 
53 29 4 13.5747 -12.6313 -3.50962 
70 15 3 -1.38079 -7.40055 -6.4496 
69 67 2 0.728963 -9.01475 -6.02762 
18 86.8 1 -27.1543 9.41933 -9.98643 
7 86.8 1 22.1573 5.48773 -5.50339 
2 86.8 1 7.29406 32.6483 -7.57532 
14 86.8 1 4.30511 -37.4311 9.39085 
1 86.8 1 -39.1609 -19.1493 0.890648 
10 86.8 1 -19.8872 -4.86807 7.63231 
16 86.8 1 -8.072 -8.75834 0.603125 
54 67 2 -16.0863 -30.7985 16.3982 
56 29 4 -16.4488 -33.6422 17.4383 
55 15 3 -14.437 -28.674 16.3863 
66 67 2 -4.41782 -25.7289 10.7207 
67 15 3 -6.19507 -23.7301 10.4381 
68 29 4 -1.77169 -26.5212 12.0131 
5 86.8 1 -0.51482 -13.8703 11.0869 
11 86.8 1 26.3929 -12.3701 14.9612 
72 67 2 -17.7627 7.00302 12.3513 
73 15 3 -15.219 7.60558 11.7188 
74 29 4 -19.5802 4.83975 13.499 
46 15 3 -20.9638 11.0668 10.8516 
45 67 2 -19.2074 11.3124 12.8738 
47 29 4 -17.1038 13.1386 14.1147 
8 86.8 1 -17.965 -21.7046 22.792 
42 67 2 -1.18963 -27.4935 29.6459 
43 15 3 -3.64682 -27.1452 28.6093 
12 86.8 1 8.19556 -12.0217 26.7095 
22 15 3 -37.7019 -3.17006 29.0286 
63 67 2 10.5597 9.82188 24.8149 
65 29 4 10.8642 6.90589 23.9757 
64 15 3 11.8501 11.936 25.8634 
19 86.8 1 -6.79351 -30.4279 34.6625 
44 29 4 0.518192 -29.307 31.405 
21 67 2 -38.1042 -3.11169 31.6873 
23 29 4 -39.7893 -4.25119 33.9593 
75 67 2 -1.49285 -2.96744 30.312 
76 15 3 -3.43964 -1.11907 30.1466 
77 29 4 -0.737055 -5.66155 31.5247 
13 86.8 1 18.8543 7.20412 39.2074 
41 29 4 -33.8463 19.7764 39.375 
57 67 2 2.67953 23.1166 38.6166 
59 29 4 4.49845 22.5236 36.2418 
27 67 2 -14.0447 34.5651 35.9528 
28 15 3 -14.3118 35.0709 33.3247 
29 29 4 -14.9328 35.4269 38.74 
ITEM: TIMESTEP
2000
ITEM: NUMBER OF ATOMS
80
ITEM: BOX BOUNDS pp pp pp
-3.9535195656851705e+01 3.9535195656851705e+01
-3.9535195656851705e+01 3.9535195656851705e+01
-3.9535195656851705e+01 3.9535195656851705e+01
ITEM: ATOMS id mass type x y z 
78 67 2 -39.3311 -32.099 -38.2367 
79 15 3 -37.4672 -30.5156 -39.3619 
80 29 4 38.7616 -33.3109 -35.6073 
60 67 2 17.9451 -15.0475 -33.2757 
61 15 3 18.9525 -17.287 -32.1719 
62 29 4 15.3923 -13.7415 -34.301 
30 67 2 27.557 -15.088 -36.6187 
31 15 3 26.6866 -13.3516 -38.4797 
32 29 4 30.0239 -16.4869 -35.5263 
15 86.8 1 -11.0855 -0.246669 -36.5648 
40 15 3 -28.5905 18.7332 -38.439 
39 67 2 -30.7651 20.0831 -39.2729 
36 67 2 -28.1557 27.1872 -35.0688 
37 15 3 -26.717 24.9739 -34.5455 
17 86.8 1 -5.66023 22.9471 -31.1731 
58 15 3 2.33657 22.1403 -38.4887 
38 29 4 -28.1141 29.8757 -36.5493 
4 86.8 1 -0.727346 31.173 -38.2017 
9 86.8 1 28.6693 -33.0324 -21.0232 
20 86.8 1 28.2002 -12.904 -27.2441 
33 67 2 9.11569 -33.5815 -10.0961 
35 29 4 6.66953 -34.1274 -11.8316 
6 86.8 1 23.7867 -12.6064 -14.4763 
50 29 4 -4.72553 -0.774368 -18.0565 
48 67 2 -5.24653 1.7268 -16.3958 
49 15 3 -4.2676 3.24354 -14.3938 
3 86.8 1 -36.5543 14.1002 -19.2253 
34 15 3 11.4978 -34.5653 -9.33549 
24 67 2 2.24527 -12.0606 -3.41462 
25 15 3 4.56438 -11.7123 -4.73535 
26 29 4 0.65366 -13.9092 -1.61939 
71 29 4 2.08076 -11.2752 -3.89473 
51 67 2 15.7439 -10.8771 -3.84029 
52 15 3 18.4068 -11.2056 -4.13902 
53 29 4 13.0806 -12.2813 -3.32855 
70 15 3 -1.14268 -7.34225 -5.65973 
69 67 2 0.840581 -9.13337 -5.55988 
18 86.8 1 -26.7659 9.4891 -9.75401 
7 86.8 1 22.2124 5.51788 -5.60651 
2 86.8 1 7.15826 32.7119 -7.49345 
14 86.8 1 4.16864 -37.3713 9.46394 
67 15 3 -5.88923 -23.442 9.71669 
1 86.8 1 -38.6374 -18.8969 1.04334 
10 86.8 1 -19.7151 -5.04837 7.70735 
16 86.8 1 -7.81363 -8.68752 0.385389 
54 67 2 -15.8157 -30.433 16.0564 
56 29 4 -16.0618 -33.2121 17.2708 
55 15 3 -15.0916 -27.8882 16.5453 
66 67 2 -4.3338 -25.466 10.5778 
68 29 4 -1.73293 -26.2232 11.9949 
5 86.8 1 -0.520216 -14.1041 10.9196 
11 86.8 1 25.9487 -12.0037 15.0898 
72 67 2 -17.7922 6.70586 12.1269 
73 15 3 -15.2231 7.20277 11.4975 
74 29 4 -19.6708 5.08764 13.8973 
46 15 3 -19.7001 10.6982 10.0796 
45 67 2 -18.9077 11.4153 12.5481 
47 29 4 -16.91 13.1151 14.1184 
8 86.8 1 -17.4886 -21.8139 22.1305 
42 67 2 -1.03464 -26.8944 29.2417 
43 15 3 -3.28311 -26.5386 27.7984 
12 86.8 1 8.32124 -11.4829 26.5143 
22 15 3 -37.6965 -2.60734 28.7035 
76 15 3 -3.65961 -1.31896 29.4538 
63 67 2 10.6666 9.90443 24.2399 
65 29 4 10.8196 6.94676 23.5257 
64 15 3 11.2151 11.7219 26.1563 
19 86.8 1 -6.71906 -30.0341 34.3288 
44 29 4 0.689669 -28.9647 30.6761 
21 67 2 -37.7165 -3.28293 31.3171 
23 29 4 -39.4831 -4.0203 33.6927 
75 67 2 -1.47167 -2.74773 30.1143 
77 29 4 -0.490824 -5.54154 30.8253 
13 86.8 1 18.3686 6.93176 38.543 
41 29 4 -33.602 19.7701 38.7238 
57 67 2 2.7364 22.7081 37.9807 
59 29 4 4.68822 22.4381 35.6622 
27 67 2 -13.9021 33.9123 35.4087 
28 15 3 -14.5912 34.1024 32.8114 
29 29 4 -14.7018 34.6403 38.2659 
ITEM: TIMESTEP
4000
ITEM: NUMBER OF ATOMS
80
ITEM: BOX BOUNDS pp pp pp
-3.6698485431021979e+01 3.6698485431021979e+01
-3.6698485431021979e+01 3.6698485431021979e+01
-3.6698485431021979e+01 3.6698485431021979e+01
ITEM: ATOMS id mass type x y z 
78 67 2 -36.4978 -29.4139 -35.5359 
79 15 3 -34.3136 -28.26 -36.5883 
80 29 4 35.8258 -30.9074 -33.1116 
61 15 3 17.9409 -16.0596 -29.7635 
62 29 4 14.0711 -12.8419 -31.8838 
60 67 2 16.7475 -13.954 -30.9421 
30 67 2 25.6204 -13.9273 -33.6575 
31 15 3 24.584 -12.5158 -35.7038 
32 29 4 28.0605 -15.5117 -32.7345 
15 86.8 1 -10.5915 -0.221758 -33.8008 
40 15 3 -26.5163 17.2915 -35.7347 
39 67 2 -28.6257 18.7136 -36.6058 
36 67 2 -26.055 25.1067 -32.7556 
37 15 3 -24.5554 23.1774 -31.6671 
17 86.8 1 -5.44723 21.2121 -28.7953 
58 15 3 2.38498 20.9001 -35.5119 
38 29 4 -26.0651 28.0059 -33.6545 
4 86.8 1 -0.527715 28.9976 -35.5856 
9 86.8 1 26.548 -30.808 -19.4727 
20 86.8 1 25.9829 -12.1323 -25.4635 
50 29 4 -4.522 -0.801555 -16.881 
3 86.8 1 -34.0588 13.0894 -17.9125 
33 67 2 8.59306 -31.3236 -9.35749 
35 29 4 6.16101 -31.8918 -11.1058 
34 15 3 10.8655 -32.3702 -8.38632 
6 86.8 1 22.1742 -11.6843 -13.3266 
48 67 2 -4.77597 1.75394 -15.2478 
49 15 3 -4.11499 2.9288 -12.9139 
7 86.8 1 20.8262 5.18537 -5.32108 
18 86.8 1 -24.7498 8.94857 -8.94256 
2 86.8 1 6.60069 30.738 -6.96905 
1 86.8 1 -35.8038 -17.5313 1.1019 
16 86.8 1 -7.01747 -8.09634 0.116834 
24 67 2 1.58401 -11.0523 -3.09573 
25 15 3 3.59537 -9.8689 -4.43383 
26 29 4 0.813048 -13.1831 -1.07498 
71 29 4 2.19683 -11.1076 -3.86846 
70 15 3 -1.09066 -6.83404 -4.50007 
69 67 2 0.917894 -8.55899 -4.9077 
51 67 2 14.5473 -9.99753 -3.48621 
53 29 4 11.8604 -11.3155 -2.95043 
52 15 3 17.1314 -10.4749 -4.09279 
54 67 2 -14.5829 -28.119 14.8791 
14 86.8 1 3.77563 -34.9529 8.93785 
67 15 3 -5.28832 -21.6271 8.53126 
55 15 3 -14.8475 -25.5044 15.4599 
66 67 2 -4.01067 -23.6323 9.78629 
68 29 4 -1.46409 -24.3819 11.273 
5 86.8 1 -0.486951 -13.4344 10.0775 
11 86.8 1 23.9761 -10.9666 14.2597 
10 86.8 1 -18.3378 -4.80397 7.32173 
74 29 4 -18.549 4.81526 13.3245 
72 67 2 -16.6685 5.90598 11.1855 
46 15 3 -17.7226 9.91373 8.90872 
45 67 2 -17.5245 10.8817 11.4015 
73 15 3 -14.0825 6.16203 10.4852 
47 29 4 -15.6945 12.3536 13.3375 
56 29 4 -14.8248 -30.9381 16.0201 
8 86.8 1 -16.0081 -20.5866 20.2121 
43 15 3 -2.98427 -24.2975 25.4713 
12 86.8 1 7.86721 -10.3349 24.7283 
63 67 2 10.1601 9.33854 22.4089 
65 29 4 10.0597 6.42341 21.5387 
64 15 3 9.90691 10.9965 24.5215 
19 86.8 1 -6.19399 -27.8372 31.8561 
44 29 4 0.844956 -26.9498 28.3116 
42 67 2 -0.907584 -24.7687 27.1173 
22 15 3 -35.0966 -1.99 26.595 
21 67 2 -35.1197 -3.2085 29.0019 
76 15 3 -3.55979 -1.17069 27.0516 
75 67 2 -1.42786 -2.46321 28.078 
77 29 4 -0.109335 -5.19075 28.3831 
23 29 4 36.6445 -3.62455 31.534 
13 86.8 1 16.8344 6.29333 35.5903 
41 29 4 -31.4785 18.5071 35.7452 
57 67 2 2.59666 20.983 35.2011 
59 29 4 4.57563 21.0173 32.881 
27 67 2 -12.8738 31.2858 32.7568 
28 15 3 -13.8254 31.2571 30.2429 
29 29 4 -13.5762 31.9084 35.6513 
ITEM: TIMESTEP
6000
ITEM: NUMBER OF ATOMS
80
ITEM: BOX BOUNDS pp pp pp
-3.2141798012929428e+01 3.2141798012929428e+01
-3.2141798012929428e+01 3.2141798012929428e+01
-3.2141798012929428e+01 3.2141798012929428e+01
ITEM: ATOMS id mass type x y z 
78 67 2 -31.9337 -25.4215 -31.1507 
79 15 3 -29.6213 -24.5804 32.0607 
80 29 4 31.1327 -27.1202 -28.9339 
61 15 3 16.0914 -14.1401 -25.7767 
62 29 4 12.0219 -11.2483 -27.9905 
60 67 2 14.773 -12.208 -27.1041 
31 15 3 21.308 -10.912 -31.2688 
30 67 2 22.4858 -12.0983 -29.1625 
32 29 4 24.8465 -13.8114 -28.2853 
20 86.8 1 22.5578 -10.7981 -22.618 
15 86.8 1 -9.5214 -0.183721 -29.5105 
40 15 3 -23.0925 14.8819 -31.2842 
39 67 2 -25.1252 16.3921 32.0999 
37 15 3 -21.4509 20.0975 -27.2006 
17 86.8 1 -4.95395 18.479 -25.1322 
58 15 3 2.03626 18.7582 -30.7614 
36 67 2 -22.6264 21.9185 -28.7733 
38 29 4 -22.9498 24.9056 -29.2937 
4 86.8 1 -0.327476 25.4089 -31.3434 
9 86.8 1 23.1969 -27.1122 -17.0542 
50 29 4 -4.10532 -0.857671 -15.0219 
6 86.8 1 19.4265 -10.2261 -11.5416 
48 67 2 -4.11025 1.6927 -13.3587 
49 15 3 -3.78776 2.69661 -10.8801 
3 86.8 1 -29.9385 11.4946 -15.8022 
33 67 2 7.67565 -27.6027 -8.15955 
35 29 4 5.24171 -28.165 -9.90651 
34 15 3 9.83325 -28.6999 -7.00494 
26 29 4 0.737284 -11.8513 -0.445192 
16 86.8 1 -5.7942 -7.12829 -0.204658 
70 15 3 -1.32593 -5.49019 -3.50919 
24 67 2 1.11859 -9.90384 -2.75436 
25 15 3 2.98993 -8.91255 -4.38571 
71 29 4 2.03745 -9.78729 -2.99888 
69 67 2 0.64795 -7.24429 -3.97541 
53 29 4 10.1043 -9.90164 -2.4245 
51 67 2 12.813 -8.6457 -3.00575 
52 15 3 15.3053 -9.17464 -3.88317 
18 86.8 1 -21.5468 7.96069 -7.70939 
7 86.8 1 18.3778 4.58594 -4.74573 
2 86.8 1 5.73996 27.285 -6.12782 
14 86.8 1 3.19448 -30.8071 7.97563 
1 86.8 1 -31.2956 -15.3619 1.08951 
67 15 3 -4.55756 -18.6852 7.00605 
66 67 2 -3.50178 -20.6349 8.52337 
68 29 4 -1.00558 -21.4595 10.0582 
5 86.8 1 -0.428706 -12.1086 8.73513 
10 86.8 1 -16.0795 -4.22893 6.60537 
72 67 2 -14.7016 4.74532 9.72296 
46 15 3 -15.2611 8.91555 7.2026 
45 67 2 -15.3585 9.85051 9.71342 
73 15 3 -12.1457 4.61591 8.90321 
54 67 2 -12.7353 -24.3834 13.1105 
55 15 3 -13.7214 -21.9201 13.5384 
56 29 4 -12.91 -27.2982 13.9764 
8 86.8 1 -13.8034 -18.4053 17.3739 
11 86.8 1 20.8996 -9.44928 12.7287 
74 29 4 -16.5666 4.12401 12.0477 
63 67 2 9.12434 8.28979 19.6265 
65 29 4 8.86602 5.48208 18.4807 
47 29 4 -13.7075 11.0932 11.9537 
19 86.8 1 -5.3344 -24.3315 27.8215 
42 67 2 -0.799346 -21.5188 23.7538 
44 29 4 0.97261 -23.7687 24.7872 
43 15 3 -2.80074 -20.9232 22.0579 
22 15 3 -30.6772 -1.41532 23.0782 
21 67 2 -30.8894 -2.922 25.3033 
76 15 3 -3.343 -0.827621 23.4774 
75 67 2 -1.3157 -2.12653 24.6858 
12 86.8 1 6.9764 -8.75299 21.7917 
77 29 4 0.325085 -4.69112 24.7045 
23 29 4 31.9875 -3.14897 27.991 
64 15 3 8.34678 9.9146 21.631 
13 86.8 1 14.5455 5.3976 30.9786 
41 29 4 -27.9963 16.3259 31.0841 
57 67 2 2.31465 18.337 30.88 
59 29 4 4.2233 18.6124 28.5236 
27 67 2 -11.1902 27.2387 28.5821 
28 15 3 -12.2903 27.0708 26.1367 
29 29 4 -11.7912 27.7827 31.5173 
ITEM: TIMESTEP
8000
ITEM: NUMBER OF ATOMS
80
ITEM: BOX BOUNDS pp pp pp
-2.7587509677822212e+01 2.7587509677822212e+01
-2.7587509677822212e+01 2.7587509677822212e+01
-2.7587509677822212e+01 2.7587509677822212e+01
ITEM: ATOMS id mass type x y z 
78 67 2 -27.3849 -21.5665 -26.7537 
80 29 4 26.4563 -23.3656 -24.6787 
61 15 3 14.1567 -12.1971 -21.6863 
62 29 4 9.9953 -9.60296 -24.0904 
60 67 2 12.787 -10.4654 -23.2198 
31 15 3 18.1199 -9.18898 -26.8785 
30 67 2 19.3302 -10.2679 -24.7357 
32 29 4 21.6254 -12.0537 -23.83 
20 86.8 1 19.1807 -9.44076 -19.8385 
15 86.8 1 -8.33214 -0.145663 -25.291 
40 15 3 -19.6533 12.4022 -26.7893 
17 86.8 1 -4.40058 15.7704 -21.5473 
58 15 3 1.48976 16.5863 -26.0276 
37 15 3 -18.3942 16.9781 -22.8434 
36 67 2 -19.217 18.7961 -24.6436 
38 29 4 -19.865 21.7571 -25.0611 
4 86.8 1 -0.173959 21.7598 -27.0969 
35 29 4 4.27943 -24.3972 -8.69312 
33 67 2 6.72646 -23.8565 -6.95417 
34 15 3 8.78424 -25.009 -5.66938 
9 86.8 1 19.8723 -23.368 -14.6753 
6 86.8 1 16.5968 -8.78034 -9.77579 
50 29 4 -3.65363 -0.926543 -13.1655 
48 67 2 -3.49054 1.60487 -11.4725 
49 15 3 -3.42134 2.54308 -8.95231 
3 86.8 1 -25.7711 9.91895 -13.7066 
18 86.8 1 -18.3492 6.92328 -6.49876 
1 86.8 1 -26.8048 -13.2072 1.03413 
26 29 4 0.343135 -10.5914 0.308188 
16 86.8 1 -4.52829 -6.14695 -0.516796 
24 67 2 1.09879 -8.93357 -2.13021 
25 15 3 3.04942 -8.45004 -3.92782 
71 29 4 1.40527 -8.36536 -2.82588 
69 67 2 0.151404 -5.62433 -3.22061 
53 29 4 8.46029 -8.54014 -1.91675 
51 67 2 11.1801 -7.3221 -2.57203 
52 15 3 13.5992 -7.81256 -3.64641 
70 15 3 -1.9811 -4.10501 -2.65497 
7 86.8 1 15.8283 3.95853 -4.11706 
2 86.8 1 4.89735 23.7318 -5.29411 
54 67 2 -10.9646 -20.6355 11.366 
55 15 3 -12.2134 -18.2999 11.8216 
56 29 4 -11.0113 -23.6253 11.954 
68 29 4 -0.543265 -18.5596 8.83302 
14 86.8 1 2.62823 -26.5448 6.96917 
66 67 2 -2.98225 -17.6105 7.2619 
8 86.8 1 -11.6738 -16.1804 14.6026 
67 15 3 -3.93467 -15.6788 5.65093 
5 86.8 1 -0.372423 -10.6953 7.38248 
11 86.8 1 17.8646 -7.9941 11.1177 
10 86.8 1 -13.7955 -3.55146 5.85935 
72 67 2 -12.6683 3.6318 8.26313 
73 15 3 -10.2167 3.0675 7.31628 
74 29 4 -14.5385 3.3257 10.6506 
65 29 4 7.69173 4.4789 15.5181 
46 15 3 -13.0167 8.02013 5.51216 
45 67 2 -13.2307 8.73793 8.09257 
47 29 4 -11.6943 9.80677 10.5057 
79 15 3 -25.0335 -20.8761 27.3171 
19 86.8 1 -4.45668 -20.8296 23.7452 
42 67 2 -0.738528 -18.3354 20.4322 
44 29 4 1.03055 -20.6351 21.3775 
43 15 3 -2.76702 -17.6693 18.7965 
12 86.8 1 6.00122 -7.27569 18.8369 
22 15 3 -26.2428 -0.998431 19.4741 
21 67 2 -26.6104 -2.57749 21.6227 
76 15 3 -3.14519 -0.511255 20.006 
75 67 2 -1.16654 -1.82966 21.264 
77 29 4 0.692348 -4.24071 21.1011 
13 86.8 1 12.3286 4.56093 26.4179 
23 29 4 27.3377 -2.72808 24.4114 
39 67 2 -21.604 14.0086 27.4691 
41 29 4 -24.4894 14.0849 26.482 
57 67 2 1.99352 15.7662 26.6374 
59 29 4 3.80812 16.1598 24.2212 
63 67 2 8.00538 7.19412 16.8696 
64 15 3 7.01164 8.81564 18.7727 
27 67 2 -9.47898 23.2715 24.4511 
28 15 3 -10.6389 23.0566 22.0349 
29 29 4 -9.99625 23.7729 27.4173 
ITEM: TIMESTEP
10000
ITEM: NUMBER OF ATOMS
80
ITEM: BOX BOUNDS pp pp pp
-2.2436938396712453e+01 2.2436938396712453e+01
-2.2436938396712453e+01 2.2436938396712453e+01
-2.2436938396712453e+01 2.2436938396712453e+01
ITEM: ATOMS id mass type x y z 
78 67 2 -22.2723 -17.3541 -21.7919 
80 29 4 21.2211 -19.1816 -19.7816 
9 86.8 1 16.1423 -19.0674 -12.0012 
15 86.8 1 -6.85534 -0.10793 -20.5784 
62 29 4 7.72816 -7.69532 -19.684 
60 67 2 10.5346 -8.49909 -18.8044 
61 15 3 11.9209 -9.98027 -17.0424 
31 15 3 14.5495 -7.15427 -22.0157 
30 67 2 15.7045 -8.20362 -19.8278 
32 29 4 17.9486 -10.0257 -18.8562 
20 86.8 1 15.4456 -7.85179 -16.6435 
40 15 3 -15.7013 9.6109 -21.6406 
3 86.8 1 -20.9973 8.13324 -11.3044 
37 15 3 -14.8411 13.4613 -18.0268 
36 67 2 -15.479 15.2642 -19.9159 
38 29 4 -16.3228 18.1523 -20.3812 
17 86.8 1 -3.6853 12.7592 -17.5557 
4 86.8 1 -0.062711 17.5848 -22.2196 
29 29 4 -8.01495 19.3522 -22.0888 
58 15 3 0.781922 14.0218 -20.7031 
35 29 4 3.1369 -20.0472 -7.31401 
33 67 2 5.59899 -19.5474 -5.58824 
34 15 3 7.57664 -20.7497 -4.22059 
50 29 4 -3.08669 -1.04667 -11.0488 
16 86.8 1 -3.14567 -4.96877 -0.795053 
69 67 2 -0.192456 -4.48418 -2.3639 
70 15 3 -2.45495 -3.2316 -1.6302 
24 67 2 0.722875 -7.19667 -1.57206 
25 15 3 2.58064 -6.66614 -3.45141 
71 29 4 1.15895 -7.21536 -2.47716 
53 29 4 6.66522 -7.06736 -1.38137 
51 67 2 9.3578 -5.84164 -2.11732 
6 86.8 1 13.3599 -7.1498 -7.82803 
52 15 3 11.6978 -6.30247 -3.35282 
18 86.8 1 -14.7783 5.6867 -5.17926 
48 67 2 -2.82793 1.46662 -9.3432 
49 15 3 -2.92976 2.40581 -6.82893 
7 86.8 1 12.8577 3.22178 -3.35477 
2 86.8 1 3.9715 19.5549 -4.34971 
54 67 2 -8.99405 -16.4183 9.36878 
55 15 3 -9.88792 -14.1235 10.4505 
56 29 4 -8.91202 -19.4462 9.72612 
68 29 4 -0.0371675 -15.275 7.42415 
66 67 2 -2.42575 -14.2186 5.85295 
67 15 3 -3.30021 -12.2019 4.3067 
14 86.8 1 2.03377 -21.6096 5.76303 
1 86.8 1 -21.7531 -10.7731 0.910097 
5 86.8 1 -0.319296 -8.9494 5.87084 
10 86.8 1 -11.1838 -2.72518 4.93755 
26 29 4 0.0429143 -8.92798 0.857898 
11 86.8 1 14.4858 -6.4257 9.17942 
74 29 4 -12.195 2.43379 8.99051 
46 15 3 -10.6183 6.82682 3.73105 
72 67 2 -10.3118 2.57479 6.59601 
73 15 3 -8.03467 1.59903 5.55346 
45 67 2 -10.8532 7.30122 6.36672 
47 29 4 -9.36204 8.26427 8.8432 
79 15 3 -19.9024 -16.7219 21.9835 
8 86.8 1 -9.40549 -13.5769 11.5167 
19 86.8 1 -3.48518 -16.8789 19.1417 
42 67 2 -0.69834 -14.805 16.6953 
43 15 3 -2.81653 -14.1323 15.1862 
44 29 4 1.0486 -17.1331 17.5995 
22 15 3 -21.2785 -0.582682 15.3467 
21 67 2 -21.6779 -2.16416 17.4802 
76 15 3 -2.95163 -0.179675 16.1356 
75 67 2 -0.960848 -1.49455 17.3692 
12 86.8 1 4.82346 -5.74718 15.4413 
77 29 4 1.02305 -3.79243 17.0874 
23 29 4 22.0619 -2.2586 20.3086 
65 29 4 6.32834 3.26179 12.3046 
13 86.8 1 9.91812 3.68056 21.347 
63 67 2 6.65916 5.92781 13.7464 
64 15 3 5.61804 7.51609 15.6454 
39 67 2 -17.5717 11.3026 22.3052 
41 29 4 -20.4584 11.5045 21.3472 
27 67 2 -7.53767 18.8671 19.8143 
28 15 3 -8.73714 18.6808 17.4168 
57 67 2 1.56796 12.9017 21.8581 
59 29 4 3.3103 13.3024 19.3876 
ITEM: TIMESTEP
12000
ITEM: NUMBER OF ATOMS
80
ITEM: BOX BOUNDS pp pp pp
-1.8730286070981258e+01 1.8730286070981258e+01
-1.8730286070981258e+01 1.8730286070981258e+01
-1.8730286070981258e+01 1.8730286070981258e+01
ITEM: ATOMS id mass type x y z 
78 67 2 -18.6102 -14.377 -18.2211 
80 29 4 17.458 -16.1939 -16.2091 
9 86.8 1 13.4734 -15.9453 -10.0994 
15 86.8 1 -5.74174 -0.0811939 -17.2211 
50 29 4 -2.66821 -1.14823 -9.52815 
62 29 4 6.12021 -6.33194 -16.4845 
60 67 2 8.94568 -7.07742 -15.6147 
61 15 3 10.3954 -8.22277 -13.663 
31 15 3 11.9645 -5.62536 -18.4341 
30 67 2 13.0518 -6.69424 -16.2207 
32 29 4 15.2497 -8.53927 -15.1907 
20 86.8 1 12.774 -6.73601 -14.4828 
40 15 3 -12.8432 7.58903 -17.8893 
3 86.8 1 -17.5318 6.85734 -9.58935 
37 15 3 -12.2309 10.9529 -14.5326 
36 67 2 -12.8323 12.7077 -16.4785 
38 29 4 -13.7577 15.5552 -17.0379 
17 86.8 1 -3.13866 10.6183 -14.7257 
4 86.8 1 -0.000990756 14.5022 -18.6755 
29 29 4 -6.57521 16.2128 -17.9927 
58 15 3 0.135024 12.2542 -16.9607 
35 29 4 2.28529 -16.8959 -6.31753 
33 67 2 4.76369 -16.4548 -4.59881 
34 15 3 6.68365 -17.6942 -3.18296 
16 86.8 1 -2.10573 -3.70972 -1.04938 
69 67 2 -0.734128 -4.01604 -1.62259 
70 15 3 -3.13207 -3.42741 -0.576111 
24 67 2 0.554765 -6.01456 -1.36255 
25 15 3 2.4771 -5.51203 -3.1631 
71 29 4 1.32414 -6.22861 -1.95673 
53 29 4 5.42594 -6.01837 -0.999558 
51 67 2 8.09138 -4.79256 -1.8267 
6 86.8 1 10.9852 -5.97517 -6.41509 
52 15 3 10.3282 -5.21094 -3.25432 
18 86.8 1 -12.2051 4.77354 -4.23403 
48 67 2 -2.36322 1.35718 -7.81816 
49 15 3 -2.56535 2.33077 -5.32229 
7 86.8 1 10.6705 2.6766 -2.78073 
2 86.8 1 3.32548 16.5239 -3.67966 
54 67 2 -7.57104 -13.4844 7.76977 
55 15 3 -8.30175 -11.1553 8.95936 
56 29 4 -7.39163 -16.5001 8.22864 
66 67 2 -2.01096 -11.7604 4.84819 
67 15 3 -2.83654 -9.59303 3.49143 
68 29 4 0.322576 -12.9571 6.40073 
14 86.8 1 1.61452 -18.0001 4.87587 
1 86.8 1 -18.1218 -9.02663 0.800239 
5 86.8 1 -0.316002 -7.66722 4.74219 
10 86.8 1 -9.25886 -2.0474 4.2655 
26 29 4 -0.129615 -7.59042 1.15724 
11 86.8 1 12.0778 -5.32337 7.74916 
74 29 4 -10.5177 1.80641 7.75228 
46 15 3 -8.96605 5.87192 2.48489 
72 67 2 -8.59752 1.84945 5.38475 
73 15 3 -6.56243 0.545393 4.21011 
45 67 2 -9.15556 6.19187 5.14732 
47 29 4 -7.65925 7.11077 7.63797 
79 15 3 -16.2322 -13.7398 18.161 
8 86.8 1 -7.78809 -11.561 9.52913 
19 86.8 1 -2.76573 -14.0133 15.7943 
42 67 2 -0.711984 -12.3174 14.0363 
43 15 3 -2.93515 -11.6573 12.6797 
44 29 4 1.03491 -14.6488 14.9318 
22 15 3 -17.7497 -0.321146 12.331 
21 67 2 -18.0986 -1.86335 14.5023 
76 15 3 -2.82409 0.0180367 13.4023 
75 67 2 -0.777118 -1.27783 14.5636 
12 86.8 1 3.90475 -4.6828 12.9942 
77 29 4 1.28576 -3.49043 14.1813 
23 29 4 18.258 -1.91478 17.3433 
65 29 4 5.34518 2.34061 10.0419 
13 86.8 1 8.21671 3.07953 17.7182 
63 67 2 5.66875 4.99748 11.5018 
64 15 3 4.68525 6.53245 13.4749 
39 67 2 -14.6539 9.33255 18.6202 
41 29 4 -17.5398 9.63642 17.6867 
27 67 2 -6.12165 15.7316 16.4927 
28 15 3 -7.33292 15.6131 14.0969 
57 67 2 1.22747 10.9136 18.443 
59 29 4 2.93239 11.2031 15.9318 
ITEM: TIMESTEP
14000
ITEM: NUMBER OF ATOMS
80
ITEM: BOX BOUNDS pp pp pp
-1.5755341054742717e+01 1.5755341054742717e+01
-1.5755341054742717e+01 1.5755341054742717e+01
-1.5755341054742717e+01 1.5755341054742717e+01
ITEM: ATOMS id mass type x y z 
78 67 2 -15.6831 -12.0152 -15.3576 
62 29 4 4.8436 -5.26149 -13.8743 
35 29 4 1.58354 -14.3532 -5.51735 
80 29 4 14.4385 -13.8028 -13.3184 
9 86.8 1 11.3434 -13.4196 -8.58259 
60 67 2 7.71497 -5.93107 -13.1074 
61 15 3 9.31054 -6.69884 -11.0853 
30 67 2 10.8595 -5.50751 -13.1763 
32 29 4 13.0407 -7.38101 -12.1573 
20 86.8 1 10.6597 -5.82195 -12.8763 
15 86.8 1 -4.82702 -0.0607652 -14.5419 
50 29 4 -2.32378 -1.23791 -8.30306 
48 67 2 -1.98744 1.25963 -6.59086 
31 15 3 9.75481 -4.32051 -15.3072 
6 86.8 1 9.07007 -5.01441 -5.23597 
40 15 3 -10.5416 5.9784 -14.8347 
3 86.8 1 -14.7294 5.83405 -8.21502 
37 15 3 -10.1366 8.94181 -11.7186 
36 67 2 -10.7309 10.6371 -13.7196 
38 29 4 -11.6961 13.4542 -14.3685 
29 29 4 -5.41517 13.6995 -14.7001 
17 86.8 1 -2.6788 8.93315 -12.4755 
4 86.8 1 0.02566 11.9543 -15.7511 
58 15 3 -0.443711 10.9361 -14.1246 
1 86.8 1 -15.2083 -7.6247 0.700228 
33 67 2 4.07193 -13.9761 -3.80132 
66 67 2 -1.62851 -9.74374 4.05661 
67 15 3 -2.29048 -7.40372 2.91137 
14 86.8 1 1.28668 -15.0769 4.15303 
5 86.8 1 -0.379057 -6.62394 3.76954 
26 29 4 -0.306843 -6.47107 1.48256 
71 29 4 1.4127 -5.08278 -1.58216 
34 15 3 5.93557 -15.2605 -2.35111 
18 86.8 1 -10.1424 4.02939 -3.47711 
10 86.8 1 -7.65229 -1.43587 3.70848 
46 15 3 -7.67032 5.01024 1.51071 
72 67 2 -7.22783 1.26851 4.41657 
73 15 3 -5.54984 -0.334074 3.06087 
45 67 2 -7.79937 5.24412 4.18603 
16 86.8 1 -1.42851 -3.07131 -1.04934 
69 67 2 -1.00287 -3.30712 -1.18973 
70 15 3 -3.43553 -3.16326 -0.141217 
24 67 2 0.461837 -5.16404 -1.16104 
25 15 3 2.50903 -4.69054 -2.85038 
53 29 4 4.36951 -5.1035 -0.759326 
49 15 3 -2.2553 2.25406 -4.10835 
51 67 2 7.07232 -4.00942 -1.64553 
52 15 3 9.09012 -4.33987 -3.39098 
7 86.8 1 8.89848 2.23017 -2.31128 
2 86.8 1 2.82542 14.0855 -3.14684 
54 67 2 -6.40498 -11.1912 6.68516 
55 15 3 -6.69526 -8.9411 8.12176 
56 29 4 -6.13454 -14.2108 6.84737 
79 15 3 -13.301 -11.3532 15.0975 
8 86.8 1 -6.58411 -9.81934 7.80553 
68 29 4 0.570149 -11.2167 5.56624 
19 86.8 1 -2.16926 -11.6776 13.0848 
42 67 2 -0.765347 -10.3707 11.9359 
43 15 3 -3.06927 -9.74303 10.7027 
44 29 4 1.02711 -12.678 12.7985 
74 29 4 -9.18857 1.38701 6.74448 
22 15 3 -14.9577 -0.143727 9.88401 
21 67 2 -15.214 -1.62061 12.1147 
76 15 3 -2.69931 0.13274 11.2514 
75 67 2 -0.581259 -1.13903 12.3097 
12 86.8 1 3.08642 -3.82736 11.0427 
77 29 4 1.57567 -3.22311 11.7689 
65 29 4 4.55221 1.58231 8.25043 
63 67 2 4.85587 4.24158 9.70578 