----- GAMESS execution script 'rungms' -----
This job is running on host node001
under operating system Linux at Thu Jun 27 15:20:45 CEST 2019
Available scratch disk space (Kbyte units) at beginning of the job is
Filesystem        1K-blocks         Used   Available Use% Mounted on
beegfs_nodev   390626119680 355085929472 35540190208  91% /data
GAMESS temporary binary files will be written to /data/scratch-no-backup/mdi0316/rungms/1224151/tmp
GAMESS supplementary output files will be written to /data/scratch-no-backup/mdi0316/rungms/1224151/tmp
Copying input file gms_bf4_N311_B3LYP_HES_MP2.inp to your run's scratch directory...
 
Assuming a single but multicore node.
 

 Distributed Data Interface kickoff program.
 Initiating 16 compute processes on 1 nodes to run the following command:
 /home/mdi0316/CODES/gamess_sockets/gamess.00.x gms_bf4_N311_B3LYP_HES_MP2 

          ******************************************************
          *         GAMESS VERSION = 14 FEB 2018 (R1)         *
          *             FROM IOWA STATE UNIVERSITY             *
          * M.W.SCHMIDT, K.K.BALDRIDGE, J.A.BOATZ, S.T.ELBERT, *
          *   M.S.GORDON, J.H.JENSEN, S.KOSEKI, N.MATSUNAGA,   *
          *          K.A.NGUYEN, S.J.SU, T.L.WINDUS,           *
          *       TOGETHER WITH M.DUPUIS, J.A.MONTGOMERY       *
          *         J.COMPUT.CHEM.  14, 1347-1363(1993)        *
          **************** 64 BIT LINUX VERSION ****************

  SINCE 1993, STUDENTS AND POSTDOCS WORKING AT IOWA STATE UNIVERSITY
  AND ALSO IN THEIR VARIOUS JOBS AFTER LEAVING ISU HAVE MADE IMPORTANT
  CONTRIBUTIONS TO THE CODE:
     IVANA ADAMOVIC, CHRISTINE AIKENS, YURI ALEXEEV, POOJA ARORA,
     ANDREY ASADCHEV, ROB BELL, PRADIPTA BANDYOPADHYAY, JONATHAN BENTZ,
     BRETT BODE, KURT BRORSEN, CALEB CARLIN, GALINA CHABAN, WEI CHEN,
     CHEOL HO CHOI, PAUL DAY, ALBERT DEFUSCO, NUWAN DESILVA, TIM DUDLEY,
     DMITRI FEDOROV, ALEX FINDLATER, GRAHAM FLETCHER, MARK FREITAG,
     KURT GLAESEMANN, ANASTASIA GUININA,
     DAN KEMP, GRANT MERRILL, NORIYUKI MINEZAWA, JONATHAN MULLIN,
     TAKESHI NAGATA, SEAN NEDD, HEATHER NETZLOFF, BOSILJKA NJEGIC, RYAN OLSON,
     MIKE PAK, BUU PHAM,
     SPENCER PRUITT, LUKE ROSKOP, JIM SHOEMAKER, LYUDMILA SLIPCHENKO,
     TONY SMITH, SAROM SOK LEANG, JIE SONG, TETSUYA TAKETSUGU, SIMON WEBB,
     PENG XU, SOOHAENG YOO, FEDERICO ZAHARIEV

  ADDITIONAL CODE HAS BEEN PROVIDED BY COLLABORATORS IN OTHER GROUPS:
     IOWA STATE UNIVERSITY:
          JOE IVANIC, AARON WEST, LAIMUTIS BYTAUTAS, KLAUS RUEDENBERG
     UNIVERSITY OF TOKYO: KIMIHIKO HIRAO, TAKAHITO NAKAJIMA,
          TAKAO TSUNEDA, MUNEAKI KAMIYA, SUSUMU YANAGISAWA,
          KIYOSHI YAGI, MAHITO CHIBA, SEIKEN TOKURA, NAOAKI KAWAKAMI
     UNIVERSITY OF AARHUS: FRANK JENSEN
     UNIVERSITY OF IOWA: VISVALDAS KAIRYS, HUI LI
     NATIONAL INST. OF STANDARDS AND TECHNOLOGY: WALT STEVENS, DAVID GARMER
     UNIVERSITY OF PISA: BENEDETTA MENNUCCI, JACOPO TOMASI
     UNIVERSITY OF MEMPHIS: HENRY KURTZ, PRAKASHAN KORAMBATH
     UNIVERSITY OF ALBERTA: TOBY ZENG, MARIUSZ KLOBUKOWSKI
     UNIVERSITY OF NEW ENGLAND: MARK SPACKMAN
     MIE UNIVERSITY: HIROAKI UMEDA
     NAT. INST. OF ADVANCED INDUSTRIAL SCIENCE AND TECHNOLOGY: KAZUO KITAURA
     MICHIGAN STATE UNIVERSITY:
          KAROL KOWALSKI, MARTA WLOCH, JEFFREY GOUR, JESSE LUTZ,
          WEI LI, PIOTR PIECUCH
     UNIVERSITY OF SILESIA: MONIKA MUSIAL, STANISLAW KUCHARSKI
     FACULTES UNIVERSITAIRES NOTRE-DAME DE LA PAIX:
          OLIVIER QUINET, BENOIT CHAMPAGNE
     UNIVERSITY OF CALIFORNIA - SANTA BARBARA: BERNARD KIRTMAN
     INSTITUTE FOR MOLECULAR SCIENCE:
          KAZUYA ISHIMURA, MICHIO KATOUDA, AND SHIGERU NAGASE
     UNIVERSITY OF NOTRE DAME: ANNA POMOGAEVA, DAN CHIPMAN
     KYUSHU UNIVERSITY:
          HARUYUKI NAKANO,
          FENG LONG GU, JACEK KORCHOWIEC, MARCIN MAKOWSKI, AND YURIKO AOKI,
          HIROTOSHI MORI AND EISAKU MIYOSHI
     PENNSYLVANIA STATE UNIVERSITY:
          TZVETELIN IORDANOV, CHET SWALINA, JONATHAN SKONE,
          SHARON HAMMES-SCHIFFER
     WASEDA UNIVERSITY:
          MASATO KOBAYASHI, TOMOKO AKAMA, TSUGUKI TOUMA,
          TAKESHI YOSHIKAWA, YASUHIRO IKABATA, JUNJI SEINO,
          YUYA NAKAJIMA, HIROMI NAKAI
     NANJING UNIVERSITY: SHUHUA LI
     UNIVERSITY OF NEBRASKA:
          PEIFENG SU, DEJUN SI, NANDUN THELLAMUREGE, YALI WANG, HUI LI
     UNIVERSITY OF ZURICH: ROBERTO PEVERATI, KIM BALDRIDGE
     N. COPERNICUS UNIVERSITY AND JACKSON STATE UNIVERSITY:
          MARIA BARYSZ
     UNIVERSITY OF COPENHAGEN: Jimmy Kromann, CASPER STEINMANN
     TOKYO INSTITUTE OF TECHNOLOGY: HIROYA NAKATA
     NAGOYA UNIVERSITY: YOSHIO NISHIMOTO, STEPHAN IRLE
     MOSCOW STATE UNIVERSITY: VLADIMIR MIRONOV


 PARALLEL VERSION RUNNING ON       16 PROCESSORS IN        1 NODES.

 EXECUTION OF GAMESS BEGUN Thu Jun 27 15:20:45 2019

            ECHO OF THE FIRST FEW INPUT CARDS -
 INPUT CARD> $CONTRL                                                                        
 INPUT CARD>  SCFTYP=RHF                                                                    
 INPUT CARD>  EXETYP=RUN                                                                    
 INPUT CARD>  RUNTYP=HESSIAN                                                                
 INPUT CARD>  MOLPLT=.T.                                                                    
 INPUT CARD>  NOSYM=1                                                                       
 INPUT CARD>  MAXIT=200                                                                     
 INPUT CARD>  ICHARG=-1                                                                     
 INPUT CARD>  MULT=1                                                                        
 INPUT CARD>  AIMPAC=.T.                                                                    
 INPUT CARD>  COORD=ZMT                                                                     
 INPUT CARD>  NZVAR=9                                                                       
 INPUT CARD>  MPLEVL=2                                                                      
 INPUT CARD> $END                                                                           
 INPUT CARD> $SYSTEM                                                                        
 INPUT CARD>  MWORDS=4                                                                      
 INPUT CARD>  MEMDDI=256                                                                    
 INPUT CARD> $END                                                                           
 INPUT CARD> $CPHF                                                                          
 INPUT CARD>  CPHF=AO                                                                       
 INPUT CARD> $END                                                                           
 INPUT CARD> $FORCE                                                                         
 INPUT CARD>  VIBANL=.T.                                                                    
 INPUT CARD> $END                                                                           
 INPUT CARD> $SCF                                                                           
 INPUT CARD>  DIRSCF=.T.                                                                    
 INPUT CARD>  NCONV=5                                                                       
 INPUT CARD>  DIIS=.T.                                                                      
 INPUT CARD>  DAMP=.T.                                                                      
 INPUT CARD> $END                                                                           
 INPUT CARD> $BASIS                                                                         
 INPUT CARD>  GBASIS=N311                                                                   
 INPUT CARD>  NDFUNC=1                                                                      
 INPUT CARD>  NPFUNC=1                                                                      
 INPUT CARD>  DIFFSP=.T.                                                                    
 INPUT CARD>  DIFFS=.T.                                                                     
 INPUT CARD>  NGAUSS=6                                                                      
 INPUT CARD>  POLAR=POPN311                                                                 
 INPUT CARD> $END                                                                           
 INPUT CARD> $DATA                                                                          
 INPUT CARD>new.run                                                                         
 INPUT CARD>C1                                                                              
 INPUT CARD> b                                                                              
 INPUT CARD> f  1    ff1                                                                    
 INPUT CARD> f  1    ff2         2    fff2                                                  
 INPUT CARD> f  1    ff3         2    fff3        3    dih3                                 
 INPUT CARD> f  1    ff4         2    fff4        3    dih4                                 
 INPUT CARD>                                                                                
 INPUT CARD>ff1              1.4167396                                                      
 INPUT CARD>ff2              1.4166777                                                      
    4000000 WORDS OF MEMORY AVAILABLE

     BASIS OPTIONS
     -------------
     GBASIS=N311         IGAUSS=       6      POLAR=POPN311 
     NDFUNC=       1     NFFUNC=       0     DIFFSP=       T
     NPFUNC=       1      DIFFS=       T     BASNAM=        


     RUN TITLE
     ---------
 new.run                                                                         

 THE POINT GROUP OF THE MOLECULE IS C1      
 THE ORDER OF THE PRINCIPAL AXIS IS     0

 YOUR FULLY SUBSTITUTED Z-MATRIX IS
 B   
 F      1   1.4167396
 F      1   1.4166777  2  109.4802
 F      1   1.4166925  2  109.4772  3  120.0121  0
 F      1   1.4166912  2  109.4771  3 -120.0121  0

 THE MOMENTS OF INERTIA ARE (AMU-ANGSTROM**2)
 IXX=   101.669   IYY=   101.677   IZZ=   101.698

 ATOM      ATOMIC                      COORDINATES (BOHR)
           CHARGE         X                   Y                   Z
 B           5.0    -0.0002573439        0.0001139737        0.0000001702
 F           9.0    -2.3944382591       -1.1980346343        0.0018148075
 F           9.0    -0.3313875974        2.6566877059        0.0028412427
 F           9.0     1.3656489060       -0.7313659480        2.1832148413
 F           9.0     1.3603260777       -0.7273531698       -2.1878709901

          INTERNUCLEAR DISTANCES (ANGS.)
          ------------------------------

                1 B          2 F          3 F          4 F          5 F     

   1 B       0.0000000    1.4167396 *  1.4166777 *  1.4166925 *  1.4166912 *
   2 F       1.4167396 *  0.0000000    2.3136041 *  2.3135725 *  2.3135712 *
   3 F       1.4166777 *  2.3136041 *  0.0000000    2.3134713 *  2.3134700 *
   4 F       1.4166925 *  2.3135725 *  2.3134713 *  0.0000000    2.3130819 *
   5 F       1.4166912 *  2.3135712 *  2.3134700 *  2.3130819 *  0.0000000  

  * ... LESS THAN  3.000


     ATOMIC BASIS SET
     ----------------
 THE CONTRACTED PRIMITIVE FUNCTIONS HAVE BEEN UNNORMALIZED
 THE CONTRACTED BASIS FUNCTIONS ARE NOW NORMALIZED TO UNITY

  SHELL TYPE  PRIMITIVE        EXPONENT          CONTRACTION COEFFICIENT(S)

 B         

      1   S       1          2858.8900000    0.002153749067
      1   S       2           428.1400000    0.016582292818
      1   S       3            97.5282000    0.082186964406
      1   S       4            27.9693000    0.276617880201
      1   S       5             8.2157700    0.629315727452
      1   S       6             1.1127800    0.173769924743

      2   L       7            13.2415000    0.117442942252    0.041809998866
      2   L       8             3.0016600    0.918001548610    0.236574993582
      2   L       9             0.9128560   -0.002651048696    0.816213977857

      3   L      10             0.3154540    1.000000000000    1.000000000000

      4   L      11             0.0988563    1.000000000000    1.000000000000

      5   L      12             0.0315000    1.000000000000    1.000000000000

      6   D      13             0.4010000    1.000000000000

 F         

      7   S      14         11427.1000000    0.001800930156
      7   S      15          1722.3500000    0.013741901192
      7   S      16           395.7460000    0.068133405910
      7   S      17           115.1390000    0.233325020240
      7   S      18            33.6026000    0.589086051102
      7   S      19             4.9190100    0.299505025981

      8   L      20            55.4441000    0.114536015543    0.035460887379
      8   L      21            12.6323000    0.920512124917    0.237450915490
      8   L      22             3.7175600   -0.003378040458    0.820457707996

      9   L      23             1.1654500    1.000000000000    1.000000000000

     10   L      24             0.3218920    1.000000000000    1.000000000000

     11   L      25             0.1076000    1.000000000000    1.000000000000

     12   D      26             1.7500000    1.000000000000

 F         

     13   S      27         11427.1000000    0.001800930156
     13   S      28          1722.3500000    0.013741901192
     13   S      29           395.7460000    0.068133405910
     13   S      30           115.1390000    0.233325020240
     13   S      31            33.6026000    0.589086051102
     13   S      32             4.9190100    0.299505025981

     14   L      33            55.4441000    0.114536015543    0.035460887379
     14   L      34            12.6323000    0.920512124917    0.237450915490
     14   L      35             3.7175600   -0.003378040458    0.820457707996

     15   L      36             1.1654500    1.000000000000    1.000000000000

     16   L      37             0.3218920    1.000000000000    1.000000000000

     17   L      38             0.1076000    1.000000000000    1.000000000000

     18   D      39             1.7500000    1.000000000000

 F         

     19   S      40         11427.1000000    0.001800930156
     19   S      41          1722.3500000    0.013741901192
     19   S      42           395.7460000    0.068133405910
     19   S      43           115.1390000    0.233325020240
     19   S      44            33.6026000    0.589086051102
     19   S      45             4.9190100    0.299505025981

     20   L      46            55.4441000    0.114536015543    0.035460887379
     20   L      47            12.6323000    0.920512124917    0.237450915490
     20   L      48             3.7175600   -0.003378040458    0.820457707996

     21   L      49             1.1654500    1.000000000000    1.000000000000

     22   L      50             0.3218920    1.000000000000    1.000000000000

     23   L      51             0.1076000    1.000000000000    1.000000000000

     24   D      52             1.7500000    1.000000000000

 F         

     25   S      53         11427.1000000    0.001800930156
     25   S      54          1722.3500000    0.013741901192
     25   S      55           395.7460000    0.068133405910
     25   S      56           115.1390000    0.233325020240
     25   S      57            33.6026000    0.589086051102
     25   S      58             4.9190100    0.299505025981

     26   L      59            55.4441000    0.114536015543    0.035460887379
     26   L      60            12.6323000    0.920512124917    0.237450915490
     26   L      61             3.7175600   -0.003378040458    0.820457707996

     27   L      62             1.1654500    1.000000000000    1.000000000000

     28   L      63             0.3218920    1.000000000000    1.000000000000

     29   L      64             0.1076000    1.000000000000    1.000000000000

     30   D      65             1.7500000    1.000000000000

 TOTAL NUMBER OF BASIS SET SHELLS             =   30
 NUMBER OF CARTESIAN GAUSSIAN BASIS FUNCTIONS =  115
 NUMBER OF ELECTRONS                          =   42
 CHARGE OF MOLECULE                           =   -1
 SPIN MULTIPLICITY                            =    1
 NUMBER OF OCCUPIED ORBITALS (ALPHA)          =   21
 NUMBER OF OCCUPIED ORBITALS (BETA )          =   21
 TOTAL NUMBER OF ATOMS                        =    5
 THE NUCLEAR REPULSION ENERGY IS      178.4018447516

     $CONTRL OPTIONS
     ---------------
 SCFTYP=RHF          RUNTYP=HESSIAN      EXETYP=RUN     
 MPLEVL=       2     CITYP =NONE         CCTYP =NONE         VBTYP =NONE    
 DFTTYP=NONE         TDDFT =NONE    
 MULT  =       1     ICHARG=      -1     NZVAR =       9     COORD =ZMT     
 PP    =NONE         RELWFN=NONE         LOCAL =NONE         NUMGRD=       F
 ISPHER=      -1     NOSYM =       1     MAXIT =     200     UNITS =ANGS    
 PLTORB=       F     MOLPLT=       T     AIMPAC=       T     FRIEND=        
 NPRINT=       7     IREST =       0     GEOM  =INPUT   
 NORMF =       0     NORMP =       0     ITOL  =      20     ICUT  =       9
 INTTYP=BEST         GRDTYP=BEST         QMTTOL= 1.0E-06

     $SYSTEM OPTIONS
     ---------------
  REPLICATED MEMORY=     4000000 WORDS (ON EVERY NODE).
 DISTRIBUTED MEMDDI=         256 MILLION WORDS IN AGGREGATE,
 MEMDDI DISTRIBUTED OVER  16 PROCESSORS IS    16000000 WORDS/PROCESSOR.
 TOTAL MEMORY REQUESTED ON EACH PROCESSOR=    20000000 WORDS.
 TIMLIM=      525600.00 MINUTES, OR     365.0 DAYS.
 PARALL= T  BALTYP=  DLB     KDIAG=    0  COREFL= F
 MXSEQ2=     300 MXSEQ3=     150  mem10=         0

          ----------------
          PROPERTIES INPUT
          ----------------

     MOMENTS            FIELD           POTENTIAL          DENSITY
 IEMOM =       1   IEFLD =       0   IEPOT =       0   IEDEN =       0
 WHERE =COMASS     WHERE =NUCLEI     WHERE =NUCLEI     WHERE =NUCLEI  
 OUTPUT=BOTH       OUTPUT=BOTH       OUTPUT=BOTH       OUTPUT=BOTH    
 IEMINT=       0   IEFINT=       0                     IEDINT=       0
                                                       MORB  =       0
          EXTRAPOLATION IN EFFECT
          DAMPING IN EFFECT
          DIIS IN EFFECT
 ORBITAL PRINTING OPTION: NPREO=     1   115     2     1

     -------------------------------
     INTEGRAL TRANSFORMATION OPTIONS
     -------------------------------
     NWORD  =            0
     CUTOFF = 1.0E-09     MPTRAN =       0
     DIRTRF =       T     AOINTS =DUP     

          ----------------------
          INTEGRAL INPUT OPTIONS
          ----------------------
 NOPK  =       1 NORDER=       0 SCHWRZ=       T

          -----------------------
          MP2 CONTROL INFORMATION
          -----------------------
          NACORE =        5  NBCORE =        5
          LMOMP2 =        F  AOINTS = DUP     
          METHOD =        2  NWORD  =               0
          MP2PRP =        F  OSPT   = NONE    
          CUTOFF = 1.00E-09  CPHFBS = BASISAO 
          CODE   = DDI     

          NUMBER OF CORE -A-  ORBITALS =     5
          NUMBER OF CORE -B-  ORBITALS =     5
          NUMBER OF OCC. -A-  ORBITALS =    21
          NUMBER OF OCC. -B-  ORBITALS =    21
          NUMBER OF MOLECULAR ORBITALS =   115
          NUMBER OF   BASIS  FUNCTIONS =   115


     ------------------------------------------
     THE POINT GROUP IS C1 , NAXIS= 1, ORDER= 1
     ------------------------------------------

     DIMENSIONS OF THE SYMMETRY SUBSPACES ARE
 A   =  115

 ..... DONE SETTING UP THE RUN .....
 CPU     0: STEP CPU TIME=     0.03 TOTAL CPU TIME=          0.0 (      0.0 MIN)
 TOTAL WALL CLOCK TIME=          0.1 SECONDS, CPU UTILIZATION IS    33.33%

     ---------------------------------
     HESSIAN MATRIX CONTROL PARAMETERS
     ---------------------------------
     METHOD=SEMINUM    NVIB  =       2   VIBSIZ= 0.01000
     RDHESS=       F   PURIFY=       F   PRTIFC=       F
     VIBANL=       T   DECOMP=       F   PROJCT=       F
     SCLFAC= 1.00000   PRTSCN=       F   NPRT  =       0
     PULCOR=       F   NPUN  =       0   REDOVB=       T
     HSSTYP=GENERAL 
     THERMOCHEMISTRY WILL BE PRINTED FOR    1 TEMPERATURES:
      298.15000

   --- ENCODED Z MATRIX ---
 COORD  TYPE   I   J   K   L   M   N
    1      1    2   1
    2      1    3   1
    3      2    3   1   2
    4      1    4   1
    5      2    4   1   2
    6      3    4   1   2   3
    7      1    5   1
    8      2    5   1   2
    9      3    5   1   2   3

 THE DETERMINANT OF THE G MATRIX IS 10**(   -12)

 THE DETERMINANT OF THE G MATRIX IS 10**(   -12)
 * * * WARNING * * *
 YOUR B MATRIX HAS A SMALL DETERMINANT.
 THIS SUGGESTS YOU MAY HAVE BADLY CHOSEN COORDINATES.


                     --------------------
                     INTERNAL COORDINATES
                     --------------------

                 - - ATOMS - -         COORDINATE      COORDINATE
 NO.   TYPE    I  J  K  L  M  N        (BOHR,RAD)       (ANG,DEG)
 ----------------------------------------------------------------
   1 STRETCH   2  1                     2.6772496       1.4167396
   2 STRETCH   3  1                     2.6771327       1.4166777
   3 BEND      3  1  2                  1.9107904     109.4802233
   4 STRETCH   4  1                     2.6771606       1.4166925
   5 BEND      4  1  2                  1.9107370     109.4771630
   6 TORSION   4  1  2  3               2.0946061     120.0120889
   7 STRETCH   5  1                     2.6771582       1.4166912
   8 BEND      5  1  2                  1.9107367     109.4771479
   9 TORSION   5  1  2  3              -2.0946056    -120.0120586
1   ATOM  0
                                        -------------------
   COORD  0                             NUCLEAR COORDINATES
                                        -------------------
     VIB  0

                       ATOM             X              Y              Z

                 1  B               -0.000257       0.000114       0.000000
                 2  F               -2.394438      -1.198035       0.001815
                 3  F               -0.331388       2.656688       0.002841
                 4  F                1.365649      -0.731366       2.183215
                 5  F                1.360326      -0.727353      -2.187871

          ********************
          1 ELECTRON INTEGRALS
          ********************
 ...... END OF ONE-ELECTRON INTEGRALS ......
 CPU     0: STEP CPU TIME=     0.01 TOTAL CPU TIME=          0.0 (      0.0 MIN)
 TOTAL WALL CLOCK TIME=          0.1 SECONDS, CPU UTILIZATION IS    33.33%

          -------------
          GUESS OPTIONS
          -------------
          GUESS =HUCKEL            NORB  =       0          NORDER=       0
          MIX   =       F          PRTMO =       F          PUNMO =       F
          TOLZ  = 1.0E-08          TOLE  = 1.0E-05
          SYMDEN=       F          PURIFY=       F

 INITIAL GUESS ORBITALS GENERATED BY HUCKEL   ROUTINE.
 HUCKEL GUESS REQUIRES    102400 WORDS.

 SYMMETRIES FOR INITIAL GUESS ORBITALS FOLLOW.   BOTH SET(S).
    21 ORBITALS ARE OCCUPIED (    5 CORE ORBITALS).
     6=A        7=A        8=A        9=A       10=A       11=A       12=A   
    13=A       14=A       15=A       16=A       17=A       18=A       19=A   
    20=A       21=A       22=A       23=A       24=A       25=A       26=A   
    27=A       28=A       29=A       30=A       31=A   
 ...... END OF INITIAL ORBITAL SELECTION ......
 CPU     0: STEP CPU TIME=     0.02 TOTAL CPU TIME=          0.1 (      0.0 MIN)
 TOTAL WALL CLOCK TIME=          0.1 SECONDS, CPU UTILIZATION IS    40.00%

                    ----------------------
                    AO INTEGRAL TECHNOLOGY
                    ----------------------
     S,P,L SHELL ROTATED AXIS INTEGRALS, REPROGRAMMED BY
        KAZUYA ISHIMURA (IMS) AND JOSE SIERRA (SYNSTAR).
     S,P,D,L SHELL ROTATED AXIS INTEGRALS PROGRAMMED BY
        KAZUYA ISHIMURA (INSTITUTE FOR MOLECULAR SCIENCE).
     S,P,D,F,G SHELL TO TOTAL QUARTET ANGULAR MOMENTUM SUM 5,
        ERIC PROGRAM BY GRAHAM FLETCHER (ELORET AND NASA ADVANCED
        SUPERCOMPUTING DIVISION, AMES RESEARCH CENTER).
     S,P,D,F,G,L SHELL GENERAL RYS QUADRATURE PROGRAMMED BY
        MICHEL DUPUIS (PACIFIC NORTHWEST NATIONAL LABORATORY).

          --------------------
          2 ELECTRON INTEGRALS
          --------------------

 DIRECT SCF METHOD SKIPS INTEGRAL STORAGE ON DISK.
 DIRECT TRANSFORMATION SKIPS AO INTEGRAL STORAGE ON DISK.
  ...... END OF TWO-ELECTRON INTEGRALS .....
 CPU     0: STEP CPU TIME=     0.01 TOTAL CPU TIME=          0.1 (      0.0 MIN)
 TOTAL WALL CLOCK TIME=          0.2 SECONDS, CPU UTILIZATION IS    36.84%

          --------------------------
                 RHF SCF CALCULATION
          --------------------------

     NUCLEAR ENERGY =       178.4018447516
     MAXIT =  200     NPUNCH=    2
     EXTRAP=T  DAMP=T  SHIFT=F  RSTRCT=F  DIIS=T  DEM=F  SOSCF=F
     DENSITY MATRIX CONV=  2.00E-05
     MEMORY REQUIRED FOR RHF ITERS=    161151 WORDS.

 DIRECT SCF CALCULATION, SCHWRZ=T   FDIFF=T,  DIRTHR=  0.00E+00 NITDIR=10
 SCHWARZ INEQUALITY OVERHEAD:      6616 INTEGRALS, T=        0.00

                                                                                                                   NONZERO     BLOCKS
 ITER EX DEM     TOTAL ENERGY        E CHANGE  DENSITY CHANGE    DIIS ERROR      VIR. SHIFT       DAMPING        INTEGRALS    SKIPPED
   1  0  0     -421.5914187328  -421.5914187328   0.328881330   2.482527571     0.000000000     1.000000000       18051443      18481
          * * *   INITIATING DIIS PROCEDURE   * * *
   2  1  0     -422.8180939619    -1.2266752291   0.073433783   0.114443694     0.000000000     1.000000000       18045308      19442
   3  2  0     -422.8576125378    -0.0395185759   0.027588443   0.029555248     0.000000000     1.000000000       17885202      22533
   4  3  0     -422.8609725029    -0.0033599651   0.010502561   0.014813504     0.000000000     1.000000000       17711848      24919
   5  4  0     -422.8615868653    -0.0006143624   0.001033488   0.001287167     0.000000000     1.000000000       17534918      26931
   6  5  0     -422.8615974721    -0.0000106068   0.000510907   0.000220556     0.000000000     1.000000000       17155384      29690
   7  6  0     -422.8615978312    -0.0000003591   0.000289204   0.000067188     0.000000000     1.000000000       16663821      32053
   8  7  0     -422.8615978619    -0.0000000307   0.000005071   0.000011615     0.000000000     1.000000000       16253986      33942
   9  8  0     -422.8615978628    -0.0000000009   0.000007392   0.000001089     0.000000000     1.000000000       14831995      39038

          -----------------
          DENSITY CONVERGED
          -----------------
     TIME TO FORM FOCK OPERATORS=       0.4 SECONDS (       0.0 SEC/ITER)
     FOCK TIME ON FIRST ITERATION=       0.0, LAST ITERATION=       0.0
     TIME TO SOLVE SCF EQUATIONS=       0.1 SECONDS (       0.0 SEC/ITER)

 FINAL RHF ENERGY IS     -422.8615978628 AFTER   9 ITERATIONS

          ------------
          EIGENVECTORS
          ------------

                      1          2          3          4          5
                  -26.0554   -26.0554   -26.0553   -26.0553    -7.5299
                     A          A          A          A          A   
    1  B  1  S   -0.000001  -0.000009  -0.000000  -0.000016   0.579141
    2  B  1  S   -0.000003  -0.000016  -0.000000  -0.000029   0.456377
    3  B  1  X    0.000009  -0.000021   0.000000   0.000011  -0.000001
    4  B  1  Y    0.000023   0.000007  -0.000000  -0.000006   0.000000
    5  B  1  Z    0.000000   0.000000  -0.000025   0.000000   0.000000
    6  B  1  S    0.000015   0.000096   0.000001   0.000173   0.001881
    7  B  1  X    0.000064  -0.000148   0.000000   0.000077   0.000001
    8  B  1  Y    0.000166   0.000050  -0.000000  -0.000042  -0.000000
    9  B  1  Z    0.000000   0.000000  -0.000179   0.000001  -0.000000
   10  B  1  S   -0.000072  -0.000460  -0.000005  -0.000831   0.009465
   11  B  1  X   -0.000078   0.000179  -0.000000  -0.000092   0.000000
   12  B  1  Y   -0.000201  -0.000061   0.000000   0.000051   0.000000
   13  B  1  Z   -0.000000  -0.000000   0.000216  -0.000001  -0.000000
   14  B  1  S   -0.000013  -0.000084  -0.000001  -0.000152  -0.000046
   15  B  1  X   -0.000018   0.000041  -0.000000  -0.000021  -0.000000
   16  B  1  Y   -0.000046  -0.000014   0.000000   0.000012   0.000000
   17  B  1  Z   -0.000000  -0.000000   0.000049  -0.000000   0.000000
   18  B  1 XX   -0.000065   0.000042  -0.000000   0.000019  -0.001483
   19  B  1 YY    0.000080   0.000062  -0.000000  -0.000005  -0.001483
   20  B  1 ZZ   -0.000008  -0.000058   0.000001   0.000069  -0.001483
   21  B  1 XY   -0.000049   0.000043   0.000000  -0.000020  -0.000000
   22  B  1 XZ    0.000000  -0.000000  -0.000086   0.000001  -0.000000
   23  B  1 YZ    0.000000   0.000000   0.000046  -0.000000   0.000000
   24  F  2  S   -0.329393   0.424049   0.000980   0.107853  -0.000140
   25  F  2  S   -0.284668   0.366473   0.000847   0.093210  -0.000213
   26  F  2  X   -0.000436   0.000561   0.000001   0.000139   0.000281
   27  F  2  Y   -0.000221   0.000278   0.000001   0.000071   0.000141
   28  F  2  Z    0.000000  -0.000000   0.000004  -0.000000  -0.000000
   29  F  2  S   -0.004016   0.005167   0.000012   0.001310   0.000495
   30  F  2  X    0.000145  -0.000191  -0.000000  -0.000054   0.000684
   31  F  2  Y    0.000073  -0.000096  -0.000000  -0.000027   0.000343
   32  F  2  Z   -0.000000   0.000000   0.000000   0.000000  -0.000001
   33  F  2  S    0.000339  -0.000416  -0.000001  -0.000080   0.000834
   34  F  2  X   -0.000018   0.000053   0.000000   0.000022   0.000427
   35  F  2  Y   -0.000029   0.000008   0.000000   0.000023   0.000214
   36  F  2  Z   -0.000000  -0.000000   0.000026  -0.000000  -0.000000
   37  F  2  S   -0.000437   0.000600   0.000002   0.000201  -0.002348
   38  F  2  X   -0.000087   0.000091   0.000000   0.000016  -0.000771
   39  F  2  Y   -0.000030   0.000058   0.000000   0.000000  -0.000386
   40  F  2  Z    0.000000  -0.000000  -0.000017   0.000000   0.000001
   41  F  2 XX    0.000185  -0.000234  -0.000001  -0.000060   0.000184
   42  F  2 YY    0.000152  -0.000204  -0.000000  -0.000049  -0.000013
   43  F  2 ZZ    0.000149  -0.000187  -0.000000  -0.000050  -0.000079
   44  F  2 XY    0.000021  -0.000028  -0.000000  -0.000006   0.000152
   45  F  2 XZ   -0.000000   0.000000   0.000006  -0.000000  -0.000000
   46  F  2 YZ   -0.000000   0.000000  -0.000002   0.000000  -0.000000
   47  F  3  S    0.437186   0.313457   0.000916   0.102776  -0.000140
   48  F  3  S    0.377826   0.270896   0.000792   0.088822  -0.000213
   49  F  3  X    0.000078   0.000060   0.000000   0.000017   0.000039
   50  F  3  Y   -0.000643  -0.000459  -0.000001  -0.000148  -0.000312
   51  F  3  Z   -0.000001  -0.000000   0.000003  -0.000000  -0.000000
   52  F  3  S    0.005330   0.003819   0.000011   0.001248   0.000495
   53  F  3  X   -0.000027  -0.000020  -0.000000  -0.000007   0.000095
   54  F  3  Y    0.000215   0.000158   0.000000   0.000057  -0.000760
   55  F  3  Z    0.000000   0.000000   0.000000   0.000000  -0.000001
   56  F  3  S   -0.000443  -0.000303  -0.000001  -0.000074   0.000834
   57  F  3  X   -0.000007   0.000026   0.000000  -0.000007   0.000059
   58  F  3  Y   -0.000044  -0.000037  -0.000000  -0.000030  -0.000474
   59  F  3  Z   -0.000000  -0.000000   0.000026  -0.000000  -0.000001
   60  F  3  S    0.000591   0.000452   0.000002   0.000194  -0.002348
   61  F  3  X    0.000023  -0.000004   0.000000   0.000008  -0.000107
   62  F  3  Y   -0.000116  -0.000078  -0.000000  -0.000012   0.000856
   63  F  3  Z   -0.000000  -0.000000  -0.000017   0.000000   0.000001
   64  F  3 XX   -0.000194  -0.000142  -0.000000  -0.000046  -0.000074
   65  F  3 YY   -0.000254  -0.000183  -0.000001  -0.000058   0.000245
   66  F  3 ZZ   -0.000196  -0.000137  -0.000000  -0.000048  -0.000079
   67  F  3 XY    0.000011   0.000002   0.000000   0.000004  -0.000047
   68  F  3 XZ    0.000000   0.000000   0.000005  -0.000000  -0.000000
   69  F  3 YZ   -0.000000  -0.000000  -0.000004   0.000000   0.000000
   70  F  4  S   -0.012589  -0.104258  -0.385123   0.374971  -0.000140
   71  F  4  S   -0.010880  -0.090101  -0.332831   0.324059  -0.000213
   72  F  4  X    0.000008   0.000082   0.000290  -0.000283  -0.000161
   73  F  4  Y   -0.000008  -0.000043  -0.000155   0.000151   0.000086
   74  F  4  Z    0.000015   0.000126   0.000466  -0.000449  -0.000257
   75  F  4  S   -0.000154  -0.001274  -0.004695   0.004567   0.000495
   76  F  4  X   -0.000003  -0.000024  -0.000097   0.000098  -0.000391
   77  F  4  Y    0.000001   0.000013   0.000052  -0.000052   0.000209
   78  F  4  Z   -0.000005  -0.000039  -0.000155   0.000157  -0.000624
   79  F  4  S    0.000015   0.000123   0.000393  -0.000352   0.000834
   80  F  4  X   -0.000011   0.000015   0.000008  -0.000035  -0.000243
   81  F  4  Y   -0.000024  -0.000004  -0.000004   0.000019   0.000130
   82  F  4  Z   -0.000002  -0.000012   0.000038  -0.000039  -0.000389
   83  F  4  S   -0.000012  -0.000108  -0.000516   0.000559  -0.002348
   84  F  4  X    0.000009   0.000009   0.000061  -0.000040   0.000440
   85  F  4  Y    0.000014  -0.000007  -0.000033   0.000021  -0.000236
   86  F  4  Z    0.000005   0.000037   0.000080  -0.000075   0.000703
   87  F  4 XX    0.000010   0.000048   0.000186  -0.000180   0.000007
   88  F  4 YY    0.000001   0.000046   0.000177  -0.000170  -0.000054
   89  F  4 ZZ    0.000007   0.000060   0.000204  -0.000203   0.000140
   90  F  4 XY    0.000003  -0.000004  -0.000008   0.000009  -0.000053
   91  F  4 XZ    0.000001   0.000005   0.000028  -0.000023   0.000158
   92  F  4 YZ    0.000001  -0.000003  -0.000015   0.000012  -0.000085
   93  F  5  S   -0.012651  -0.104919   0.389395   0.370343  -0.000140
   94  F  5  S   -0.010933  -0.090672   0.336524   0.320059  -0.000213
   95  F  5  X    0.000008   0.000082  -0.000292  -0.000278  -0.000160
   96  F  5  Y   -0.000008  -0.000043   0.000156   0.000149   0.000086
   97  F  5  Z   -0.000015  -0.000127   0.000472   0.000445   0.000257
   98  F  5  S   -0.000155  -0.001282   0.004747   0.004510   0.000495
   99  F  5  X   -0.000003  -0.000024   0.000098   0.000096  -0.000389
  100  F  5  Y    0.000001   0.000013  -0.000052  -0.000052   0.000208
  101  F  5  Z    0.000005   0.000039  -0.000157  -0.000155   0.000626
  102  F  5  S    0.000016   0.000124  -0.000397  -0.000347   0.000834
  103  F  5  X   -0.000011   0.000015  -0.000008  -0.000035  -0.000243
  104  F  5  Y   -0.000024  -0.000004   0.000004   0.000019   0.000130
  105  F  5  Z    0.000002   0.000011   0.000039   0.000038   0.000390
  106  F  5  S   -0.000012  -0.000109   0.000523   0.000553  -0.002348
  107  F  5  X    0.000009   0.000009  -0.000061  -0.000039   0.000439
  108  F  5  Y    0.000014  -0.000007   0.000033   0.000021  -0.000235
  109  F  5  Z   -0.000005  -0.000037   0.000081   0.000074  -0.000705
  110  F  5 XX    0.000010   0.000049  -0.000188  -0.000178   0.000006
  111  F  5 YY    0.000001   0.000046  -0.000179  -0.000168  -0.000054
  112  F  5 ZZ    0.000007   0.000060  -0.000207  -0.000201   0.000141
  113  F  5 XY    0.000003  -0.000004   0.000008   0.000008  -0.000052
  114  F  5 XZ   -0.000001  -0.000005   0.000028   0.000023  -0.000158
  115  F  5 YZ   -0.000001   0.000003  -0.000015  -0.000012   0.000084

                      6          7          8          9         10
                   -1.4031    -1.3446    -1.3446    -1.3445    -0.5986
                     A          A          A          A          A   
    1  B  1  S   -0.043463   0.000006   0.000003  -0.000000  -0.075189
    2  B  1  S   -0.072273   0.000009   0.000005  -0.000000  -0.129510
    3  B  1  X    0.000012   0.009239  -0.045650   0.000205   0.000020
    4  B  1  Y    0.000007   0.045652   0.009245  -0.000109   0.000008
    5  B  1  Z   -0.000000   0.000066   0.000222   0.046570  -0.000000
    6  B  1  S    0.158870  -0.000022  -0.000015   0.000000   0.360931
    7  B  1  X    0.000003   0.012313  -0.060846   0.000273   0.000018
    8  B  1  Y    0.000010   0.060843   0.012323  -0.000145   0.000013
    9  B  1  Z   -0.000000   0.000088   0.000296   0.062069  -0.000000
   10  B  1  S   -0.224199   0.000064   0.000031  -0.000001  -0.289943
   11  B  1  X   -0.000097   0.010876  -0.053659   0.000240  -0.000115
   12  B  1  Y    0.000044   0.053682   0.010855  -0.000128   0.000042
   13  B  1  Z    0.000000   0.000078   0.000261   0.054740   0.000000
   14  B  1  S    0.018765  -0.000004  -0.000000   0.000000  -0.017472
   15  B  1  X   -0.000000   0.000589  -0.002898   0.000013  -0.000002
   16  B  1  Y    0.000001   0.002900   0.000585  -0.000007   0.000001
   17  B  1  Z   -0.000000   0.000004   0.000014   0.002953   0.000000
   18  B  1 XX   -0.013117  -0.022267   0.013735   0.000036  -0.002755
   19  B  1 YY   -0.013107   0.031002   0.015352  -0.000049  -0.002748
   20  B  1 ZZ   -0.013122  -0.008732  -0.029087   0.000014  -0.002769
   21  B  1 XY   -0.000001  -0.014438   0.019578  -0.000104  -0.000002
   22  B  1 XZ   -0.000000   0.000029   0.000063   0.030933  -0.000000
   23  B  1 YZ    0.000000   0.000047  -0.000033  -0.016552   0.000000
   24  F  2  S   -0.058642   0.065992  -0.084370   0.000236   0.018235
   25  F  2  S   -0.098608   0.111281  -0.142273   0.000398   0.031866
   26  F  2  X    0.013054  -0.009896   0.010105  -0.000022   0.110523
   27  F  2  Y    0.006533  -0.001867   0.007470  -0.000027   0.055309
   28  F  2  Z   -0.000010   0.000013   0.000006   0.003502  -0.000084
   29  F  2  S    0.286076  -0.325639   0.416331  -0.001164  -0.098989
   30  F  2  X    0.025750  -0.018709   0.019005  -0.000042   0.172552
   31  F  2  Y    0.012887  -0.003408   0.014169  -0.000052   0.086351
   32  F  2  Z   -0.000020   0.000025   0.000013   0.006760  -0.000131
   33  F  2  S    0.244510  -0.260598   0.333173  -0.000932  -0.103988
   34  F  2  X    0.024743  -0.007426   0.007266  -0.000015   0.133043
   35  F  2  Y    0.012382  -0.001020   0.005747  -0.000021   0.066578
   36  F  2  Z   -0.000019   0.000010   0.000007   0.003062  -0.000101
   37  F  2  S    0.042199   0.067154  -0.085874   0.000241   0.069347
   38  F  2  X    0.012612   0.024641  -0.030840   0.000085   0.035250
   39  F  2  Y    0.006298   0.011513  -0.016068   0.000047   0.017626
   40  F  2  Z   -0.000010  -0.000020   0.000020  -0.000925  -0.000027
   41  F  2 XX    0.002682  -0.001637   0.000642   0.000002   0.008504
   42  F  2 YY   -0.001781   0.002710  -0.001973   0.000004   0.000525
   43  F  2 ZZ   -0.003272   0.002941  -0.003802   0.000009  -0.002141
   44  F  2 XY    0.003440  -0.001648   0.003348  -0.000010   0.006152
   45  F  2 XZ   -0.000005   0.000006   0.000001   0.001172  -0.000009
   46  F  2 YZ   -0.000003   0.000002  -0.000000   0.000553  -0.000005
   47  F  3  S   -0.058669  -0.101530  -0.034082   0.000193   0.018240
   48  F  3  S   -0.098654  -0.171209  -0.057472   0.000325   0.031875
   49  F  3  X    0.001807   0.002949  -0.002677   0.000011   0.015300
   50  F  3  Y   -0.014492  -0.014648  -0.005373   0.000026  -0.122675
   51  F  3  Z   -0.000016  -0.000014   0.000010   0.003504  -0.000131
   52  F  3  S    0.286210   0.501007   0.168178  -0.000951  -0.099013
   53  F  3  X    0.003564   0.005608  -0.005196   0.000022   0.023886
   54  F  3  Y   -0.028586  -0.027605  -0.010147   0.000049  -0.191525
   55  F  3  Z   -0.000031  -0.000027   0.000020   0.006762  -0.000205
   56  F  3  S    0.244615   0.400927   0.134585  -0.000761  -0.104029
   57  F  3  X    0.003424   0.002315  -0.002429   0.000010   0.018416
   58  F  3  Y   -0.027459  -0.010705  -0.003994   0.000019  -0.147660
   59  F  3  Z   -0.000029  -0.000010   0.000010   0.003061  -0.000158
   60  F  3  S    0.042192  -0.103378  -0.034692   0.000196   0.069368
   61  F  3  X    0.001757  -0.005473  -0.000868   0.000006   0.004892
   62  F  3  Y   -0.013981   0.041494   0.014049  -0.000078  -0.039117
   63  F  3  Z   -0.000015   0.000044   0.000011  -0.000924  -0.000042
   64  F  3 XX   -0.003159  -0.004362  -0.001728   0.000010  -0.001938
   65  F  3 YY    0.004061   0.002734   0.001209  -0.000004   0.010970
   66  F  3 ZZ   -0.003273  -0.004548  -0.001555   0.000006  -0.002141
   67  F  3 XY   -0.001056  -0.001463   0.000838  -0.000003  -0.001887
   68  F  3 XZ   -0.000001  -0.000001   0.000002   0.000190  -0.000002
   69  F  3 YZ    0.000009   0.000009  -0.000002  -0.001282   0.000016
   70  F  4  S   -0.058644   0.017723   0.058932  -0.087669   0.018240
   71  F  4  S   -0.098612   0.029887   0.099376  -0.147835   0.031875
   72  F  4  X   -0.007449   0.002318   0.001963  -0.008012  -0.063052
   73  F  4  Y    0.003990   0.002564  -0.002195   0.004291   0.033774
   74  F  4  Z   -0.011909   0.002600   0.008645  -0.009324  -0.100803
   75  F  4  S    0.286086  -0.087457  -0.290801   0.432605  -0.099013
   76  F  4  X   -0.014693   0.004414   0.003590  -0.015168  -0.098440
   77  F  4  Y    0.007870   0.004982  -0.004130   0.008123   0.052729
   78  F  4  Z   -0.023490   0.004923   0.016368  -0.017523  -0.157377
   79  F  4  S    0.244521  -0.069989  -0.232708   0.346203  -0.104021
   80  F  4  X   -0.014119   0.001841   0.001094  -0.006072  -0.075898
   81  F  4  Y    0.007562   0.002341  -0.001586   0.003251   0.040654
   82  F  4  Z   -0.022566   0.001973   0.006552  -0.006670  -0.121335
   83  F  4  S    0.042290   0.018016   0.059965  -0.089233   0.069454
   84  F  4  X   -0.007195  -0.003987  -0.011744   0.018809  -0.020114
   85  F  4  Y    0.003855   0.001126   0.006594  -0.010073   0.010774
   86  F  4  Z   -0.011518  -0.006074  -0.020216   0.029166  -0.032168
   87  F  4 XX   -0.001333   0.000112   0.002311  -0.001782   0.001325
   88  F  4 YY   -0.002716   0.001292   0.002357  -0.003306  -0.001147
   89  F  4 ZZ    0.001680  -0.000326  -0.001085  -0.000246   0.006712
   90  F  4 XY   -0.001199  -0.000316   0.000441  -0.001322  -0.002143
   91  F  4 XZ    0.003577  -0.001007  -0.001643   0.003332   0.006396
   92  F  4 YZ   -0.001916  -0.000590   0.001219  -0.001784  -0.003426
   93  F  5  S   -0.058645   0.017856   0.059525   0.087239   0.018240
   94  F  5  S   -0.098613   0.030111   0.100376   0.147111   0.031875
   95  F  5  X   -0.007420   0.002324   0.001997   0.007972  -0.062807
   96  F  5  Y    0.003968   0.002563  -0.002208  -0.004262   0.033589
   97  F  5  Z    0.011934  -0.002615  -0.008717  -0.009289   0.101019
   98  F  5  S    0.286089  -0.088113  -0.293730  -0.430486  -0.099014
   99  F  5  X   -0.014636   0.004425   0.003653   0.015094  -0.098057
  100  F  5  Y    0.007827   0.004979  -0.004154  -0.008070   0.052440
  101  F  5  Z    0.023540  -0.004951  -0.016503  -0.017455   0.157714
  102  F  5  S    0.244523  -0.070514  -0.235051  -0.344507  -0.104022
  103  F  5  X   -0.014064   0.001845   0.001119   0.006045  -0.075603
  104  F  5  Y    0.007520   0.002339  -0.001596  -0.003232   0.040432
  105  F  5  Z    0.022614  -0.001983  -0.006603  -0.006643   0.121595
  106  F  5  S    0.042290   0.018152   0.060570   0.088797   0.069454
  107  F  5  X   -0.007167  -0.004001  -0.011822  -0.018652  -0.020036
  108  F  5  Y    0.003834   0.001130   0.006624   0.009973   0.010715
  109  F  5  Z    0.011543   0.006130   0.020455   0.029083   0.032237
  110  F  5 XX   -0.001348   0.000119   0.002330   0.001780   0.001298
  111  F  5 YY   -0.002722   0.001295   0.002383   0.003294  -0.001157
  112  F  5 ZZ    0.001701  -0.000328  -0.001094   0.000234   0.006750
  113  F  5 XY   -0.001187  -0.000314   0.000444   0.001309  -0.002123
  114  F  5 XZ   -0.003571   0.001010   0.001657   0.003318  -0.006385
  115  F  5 YZ    0.001910   0.000591  -0.001225  -0.001774   0.003414

                     11         12         13         14         15
                   -0.5259    -0.5259    -0.5259    -0.4460    -0.4460
                     A          A          A          A          A   
    1  B  1  S    0.000008  -0.000006  -0.000000  -0.000003  -0.000000
    2  B  1  S    0.000014  -0.000010  -0.000000  -0.000006  -0.000000
    3  B  1  X    0.108431  -0.034513   0.000234  -0.000002   0.000000
    4  B  1  Y   -0.034516  -0.108438  -0.000154  -0.000006   0.000000
    5  B  1  Z   -0.000270  -0.000076   0.113784   0.000000  -0.000012
    6  B  1  S   -0.000027   0.000027   0.000001   0.000016   0.000000
    7  B  1  X    0.189405  -0.060279   0.000409  -0.000028   0.000000
    8  B  1  Y   -0.060294  -0.189403  -0.000269   0.000003   0.000000
    9  B  1  Z   -0.000472  -0.000132   0.198739   0.000000  -0.000018
   10  B  1  S    0.000041  -0.000046  -0.000001  -0.000107  -0.000000
   11  B  1  X    0.031969  -0.010150   0.000069  -0.000022   0.000000
   12  B  1  Y   -0.010195  -0.031948  -0.000045   0.000006   0.000000
   13  B  1  Z   -0.000080  -0.000022   0.033615   0.000000  -0.000009
   14  B  1  S   -0.000001  -0.000002  -0.000000   0.000001   0.000000
   15  B  1  X    0.002382  -0.000758   0.000005   0.000006  -0.000000
   16  B  1  Y   -0.000758  -0.002380  -0.000003  -0.000003  -0.000000
   17  B  1  Z   -0.000006  -0.000002   0.002505  -0.000000   0.000001
   18  B  1 XX   -0.011557   0.024309   0.000060  -0.038959   0.000057
   19  B  1 YY   -0.019158  -0.030004   0.000004   0.009721  -0.000081
   20  B  1 ZZ    0.030731   0.005698  -0.000065   0.029227   0.000025
   21  B  1 XY   -0.018423   0.016941  -0.000064   0.042164   0.000039
   22  B  1 XZ    0.000013  -0.000016   0.031830   0.000134   0.027592
   23  B  1 YZ   -0.000014  -0.000056  -0.017024  -0.000074   0.051578
   24  F  2  S   -0.011887   0.011576  -0.000009   0.000001  -0.000000
   25  F  2  S   -0.020959   0.020410  -0.000016   0.000001  -0.000000
   26  F  2  X   -0.078150   0.144127   0.000083   0.066388  -0.000179
   27  F  2  Y   -0.124054  -0.015111  -0.000218  -0.132586   0.000132
   28  F  2  Z   -0.000120  -0.000207   0.108917  -0.000197  -0.148321
   29  F  2  S    0.063414  -0.061752   0.000049  -0.000003   0.000000
   30  F  2  X   -0.120327   0.222133   0.000128   0.101300  -0.000273
   31  F  2  Y   -0.191282  -0.023439  -0.000337  -0.202313   0.000201
   32  F  2  Z   -0.000186  -0.000319   0.168051  -0.000301  -0.226323
   33  F  2  S    0.104550  -0.101812   0.000081  -0.000014   0.000000
   34  F  2  X   -0.072698   0.156746   0.000125   0.086141  -0.000232
   35  F  2  Y   -0.143715  -0.031790  -0.000266  -0.172052   0.000171
   36  F  2  Z   -0.000172  -0.000242   0.137628  -0.000256  -0.192473
   37  F  2  S    0.030297  -0.029489   0.000024   0.000003   0.000000
   38  F  2  X   -0.011430   0.019204   0.000008   0.014008  -0.000038
   39  F  2  Y   -0.015796  -0.000744  -0.000027  -0.027976   0.000028
   40  F  2  Z   -0.000013  -0.000026   0.012916  -0.000042  -0.031294
   41  F  2 XX   -0.003616   0.009885   0.000010   0.003209  -0.000009
   42  F  2 YY   -0.003821  -0.002371  -0.000009  -0.003724   0.000002
   43  F  2 ZZ    0.001100  -0.001343  -0.000006   0.000516   0.000007
   44  F  2 XY   -0.007431   0.001656  -0.000008  -0.002624   0.000002
   45  F  2 XZ   -0.000006  -0.000015   0.005731  -0.000006  -0.004540
   46  F  2 YZ    0.000001  -0.000004   0.003120  -0.000001  -0.001605
   47  F  3  S   -0.006951  -0.015064  -0.000009  -0.000000   0.000000
   48  F  3  S   -0.012256  -0.026560  -0.000016  -0.000001   0.000000
   49  F  3  X    0.089062  -0.064944   0.000205   0.147149   0.000186
   50  F  3  Y    0.085004   0.152072   0.000004   0.018332  -0.000136
   51  F  3  Z   -0.000132   0.000201   0.108947  -0.000167   0.148325
   52  F  3  S    0.037084   0.080359   0.000047   0.000003  -0.000000
   53  F  3  X    0.137438  -0.100160   0.000317   0.224534   0.000283
   54  F  3  Y    0.130992   0.234281   0.000005   0.027974  -0.000207
   55  F  3  Z   -0.000204   0.000310   0.168098  -0.000255   0.226328
   56  F  3  S    0.061143   0.132520   0.000078  -0.000006  -0.000000
   57  F  3  X    0.114643  -0.077492   0.000262   0.190946   0.000241
   58  F  3  Y    0.090503   0.155503  -0.000017   0.023794  -0.000176
   59  F  3  Z   -0.000185   0.000215   0.137663  -0.000217   0.192477
   60  F  3  S    0.017729   0.038429   0.000023   0.000013  -0.000000
   61  F  3  X    0.010394  -0.008090   0.000024   0.031048   0.000039
   62  F  3  Y    0.011482   0.021065   0.000002   0.003864  -0.000029
   63  F  3  Z   -0.000014   0.000027   0.012920  -0.000035   0.031295
   64  F  3 XX    0.002066   0.000710   0.000003   0.000507   0.000003
   65  F  3 YY   -0.006317  -0.010389   0.000003  -0.001024   0.000007
   66  F  3 ZZ    0.000547   0.001647  -0.000011   0.000517  -0.000010
   67  F  3 XY   -0.004884   0.004441  -0.000012  -0.004704  -0.000007
   68  F  3 XZ   -0.000007   0.000005   0.000584  -0.000004   0.001182
   69  F  3 YZ    0.000005  -0.000017  -0.006501   0.000004  -0.004668
   70  F  4  S    0.009407   0.001745   0.013554  -0.000000  -0.000001
   71  F  4  S    0.016587   0.003077   0.023898  -0.000000  -0.000002
   72  F  4  X    0.021640  -0.048247  -0.118100  -0.106591   0.069936
   73  F  4  Y    0.010954  -0.095603   0.063229   0.057012   0.130667
   74  F  4  Z   -0.131548  -0.024415  -0.080261   0.085813   0.000049
   75  F  4  S   -0.050180  -0.009308  -0.072306  -0.000003   0.000005
   76  F  4  X    0.033504  -0.074422  -0.182057  -0.162649   0.106715
   77  F  4  Y    0.016841  -0.147521   0.097471   0.086996   0.199385
   78  F  4  Z   -0.202787  -0.037636  -0.123574   0.130939   0.000076
   79  F  4  S   -0.082770  -0.015346  -0.119224   0.000027   0.000007
   80  F  4  X    0.039109  -0.058782  -0.132272  -0.138320   0.090748
   81  F  4  Y    0.007541  -0.121963   0.070813   0.073983   0.169554
   82  F  4  Z   -0.147396  -0.027361  -0.074326   0.111331   0.000062
   83  F  4  S   -0.024012  -0.004442  -0.034621   0.000049   0.000009
   84  F  4  X    0.001602  -0.005911  -0.015404  -0.022497   0.014756
   85  F  4  Y    0.001821  -0.011254   0.008249   0.012034   0.027576
   86  F  4  Z   -0.017160  -0.003186  -0.011752   0.018093   0.000008
   87  F  4 XX   -0.002753   0.002121   0.003995   0.002882  -0.002342
   88  F  4 YY   -0.000766  -0.002775   0.000060   0.001193   0.002343
   89  F  4 ZZ    0.008537   0.001584   0.003170  -0.004077  -0.000002
   90  F  4 XY    0.000540   0.002125  -0.003410  -0.001463  -0.001802
   91  F  4 XZ    0.001900   0.002968   0.006542   0.001639  -0.001675
   92  F  4 YZ   -0.002145   0.004486  -0.003502  -0.000875  -0.003127
   93  F  5  S    0.009433   0.001749  -0.013536  -0.000000   0.000001
   94  F  5  S    0.016632   0.003084  -0.023866  -0.000000   0.000002
   95  F  5  X    0.021740  -0.048226   0.117930  -0.106795  -0.069943
   96  F  5  Y    0.010831  -0.095628  -0.063092   0.057178  -0.130663
   97  F  5  Z    0.131666   0.024382  -0.080410  -0.085449  -0.000026
   98  F  5  S   -0.050315  -0.009332   0.072209  -0.000003  -0.000005
   99  F  5  X    0.033658  -0.074390   0.181795  -0.162960  -0.106726
  100  F  5  Y    0.016650  -0.147560  -0.097260   0.087249  -0.199379
  101  F  5  Z    0.202968   0.037586  -0.123804  -0.130384  -0.000039
  102  F  5  S   -0.082993  -0.015385   0.119064   0.000027  -0.000007
  103  F  5  X    0.039221  -0.058759   0.132145  -0.138585  -0.090758
  104  F  5  Y    0.007402  -0.121991  -0.070702   0.074198  -0.169549
  105  F  5  Z    0.147454   0.027304  -0.074493  -0.110859  -0.000036
  106  F  5  S   -0.024077  -0.004453   0.034575   0.000049  -0.000009
  107  F  5  X    0.001615  -0.005908   0.015377  -0.022540  -0.014758
  108  F  5  Y    0.001805  -0.011257  -0.008227   0.012069  -0.027575
  109  F  5  Z    0.017182   0.003184  -0.011771  -0.018016  -0.000008
  110  F  5 XX   -0.002754   0.002110  -0.003972   0.002875   0.002335
  111  F  5 YY   -0.000773  -0.002761  -0.000051   0.001191  -0.002333
  112  F  5 ZZ    0.008557   0.001584  -0.003192  -0.004067  -0.000001
  113  F  5 XY    0.000542   0.002118   0.003391  -0.001458   0.001798
  114  F  5 XZ   -0.001879  -0.002967   0.006546  -0.001661  -0.001679
  115  F  5 YZ    0.002131  -0.004500  -0.003501   0.000890  -0.003136

                     16         17         18         19         20
                   -0.4080    -0.4080    -0.4080    -0.3841    -0.3841
                     A          A          A          A          A   
    1  B  1  S   -0.000000   0.000005   0.000000  -0.000000   0.000000
    2  B  1  S   -0.000000   0.000009   0.000000  -0.000000   0.000000
    3  B  1  X   -0.023519  -0.045079  -0.000142   0.000008  -0.000000
    4  B  1  Y   -0.045069   0.023524   0.000088   0.000019  -0.000000
    5  B  1  Z   -0.000013   0.000167  -0.050858   0.000000   0.000004
    6  B  1  S    0.000001  -0.000022  -0.000000  -0.000000  -0.000000
    7  B  1  X   -0.042014  -0.080520  -0.000253   0.000013  -0.000000
    8  B  1  Y   -0.080500   0.042013   0.000158   0.000031  -0.000000
    9  B  1  Z   -0.000023   0.000297  -0.090833   0.000000   0.000007
   10  B  1  S   -0.000035  -0.000002   0.000001   0.000000   0.000000
   11  B  1  X   -0.016735  -0.032034  -0.000101   0.000005   0.000000
   12  B  1  Y   -0.032056   0.016709   0.000063   0.000019  -0.000000
   13  B  1  Z   -0.000009   0.000118  -0.036094   0.000000   0.000005
   14  B  1  S   -0.000001  -0.000001   0.000000   0.000000   0.000000
   15  B  1  X    0.009860   0.018901   0.000059  -0.000006   0.000000
   16  B  1  Y    0.018896  -0.009864  -0.000037  -0.000014   0.000000
   17  B  1  Z    0.000005  -0.000070   0.021322  -0.000000  -0.000003
   18  B  1 XX    0.062203   0.017336  -0.000130  -0.000033   0.000000
   19  B  1 YY   -0.062978   0.057620   0.000037   0.000036  -0.000000
   20  B  1 ZZ    0.000779  -0.074945   0.000093  -0.000003  -0.000000
   21  B  1 XY    0.047642   0.036512   0.000184  -0.000024   0.000000
   22  B  1 XZ   -0.000043   0.000039  -0.076325   0.000000   0.000015
   23  B  1 YZ   -0.000125   0.000024   0.040841   0.000000   0.000014
   24  F  2  S    0.001268   0.000915   0.000002   0.000001  -0.000000
   25  F  2  S    0.002369   0.001711   0.000003   0.000002  -0.000000
   26  F  2  X    0.087500   0.141310   0.000422  -0.086464   0.000366
   27  F  2  Y    0.136493  -0.057327  -0.000232   0.172622  -0.000485
   28  F  2  Z    0.000019  -0.000476   0.141431   0.000577   0.161760
   29  F  2  S   -0.008829  -0.006376  -0.000011  -0.000005   0.000000
   30  F  2  X    0.132674   0.213714   0.000638  -0.130650   0.000552
   31  F  2  Y    0.206308  -0.086296  -0.000349   0.260837  -0.000733
   32  F  2  Z    0.000027  -0.000718   0.213451   0.000872   0.244423
   33  F  2  S   -0.035701  -0.025804  -0.000046   0.000002  -0.000000
   34  F  2  X    0.092997   0.175006   0.000548  -0.123177   0.000521
   35  F  2  Y    0.174545  -0.089223  -0.000338   0.245955  -0.000691
   36  F  2  Z    0.000047  -0.000641   0.195294   0.000822   0.230476
   37  F  2  S   -0.047913  -0.034626  -0.000061   0.000034  -0.000000
   38  F  2  X   -0.000681   0.014543   0.000059  -0.014379   0.000061
   39  F  2  Y    0.017512  -0.017382  -0.000056   0.028737  -0.000081
   40  F  2  Z    0.000017  -0.000082   0.027229   0.000096   0.026922
   41  F  2 XX    0.003512   0.005629   0.000016  -0.004144   0.000017
   42  F  2 YY    0.000529  -0.002358  -0.000007   0.003669  -0.000011
   43  F  2 ZZ   -0.002531  -0.002179  -0.000007   0.000475  -0.000006
   44  F  2 XY    0.005756   0.001387   0.000002   0.003716  -0.000008
   45  F  2 XZ   -0.000003  -0.000015   0.003013   0.000018   0.004169
   46  F  2 YZ   -0.000004  -0.000005   0.001874   0.000004   0.002600
   47  F  3  S   -0.001285   0.000888   0.000002  -0.000002   0.000000
   48  F  3  S   -0.002402   0.001659   0.000003  -0.000003   0.000000
   49  F  3  X    0.062376   0.127393   0.000398   0.191590  -0.000560
   50  F  3  Y    0.150254  -0.082657  -0.000277   0.023799   0.000094
   51  F  3  Z    0.000063  -0.000482   0.141403  -0.000513  -0.153250
   52  F  3  S    0.008952  -0.006185  -0.000011   0.000007  -0.000000
   53  F  3  X    0.094053   0.192325   0.000600   0.289499  -0.000846
   54  F  3  Y    0.227461  -0.125229  -0.000418   0.035960   0.000143
   55  F  3  Z    0.000095  -0.000728   0.213408  -0.000775  -0.231564
   56  F  3  S    0.036226  -0.025050  -0.000044   0.000000   0.000000
   57  F  3  X    0.090034   0.173203   0.000545   0.272971  -0.000798
   58  F  3  Y    0.176135  -0.092462  -0.000343   0.033926   0.000134
   59  F  3  Z    0.000053  -0.000642   0.195258  -0.000731  -0.218351
   60  F  3  S    0.048638  -0.033617  -0.000060  -0.000043   0.000000
   61  F  3  X    0.014475   0.022833   0.000074   0.031884  -0.000093
   62  F  3  Y    0.009187  -0.002266  -0.000029   0.003977   0.000016
   63  F  3  Z   -0.000009  -0.000078   0.027221  -0.000085  -0.025504
   64  F  3 XX    0.003175  -0.000944  -0.000001   0.001706  -0.000004
   65  F  3 YY   -0.007283   0.004129   0.000013  -0.001230  -0.000005
   66  F  3 ZZ    0.002576  -0.002126  -0.000010  -0.000476   0.000009
   67  F  3 XY   -0.000546  -0.003735  -0.000011  -0.005594   0.000017
   68  F  3 XZ   -0.000001  -0.000005   0.000111  -0.000008  -0.000141
   69  F  3 YZ   -0.000010   0.000017  -0.003546   0.000015   0.004653
   70  F  4  S    0.000009  -0.000901  -0.001277   0.000000  -0.000000
   71  F  4  S    0.000017  -0.001684  -0.002387   0.000000  -0.000001
   72  F  4  X    0.065250   0.134288   0.013378  -0.052488   0.079777
   73  F  4  Y    0.125273  -0.070200  -0.007201  -0.098115   0.136325
   74  F  4  Z   -0.000118   0.013867   0.161607  -0.000026  -0.004256
   75  F  4  S   -0.000065   0.006276   0.008898  -0.000001   0.000002
   76  F  4  X    0.098475   0.202923   0.020548  -0.079311   0.120545
   77  F  4  Y    0.189067  -0.106082  -0.011060  -0.148255   0.205991
   78  F  4  Z   -0.000183   0.021330   0.244469  -0.000040  -0.006431
   79  F  4  S   -0.000263   0.025371   0.036005  -0.000001   0.000002
   80  F  4  X    0.090210   0.174149   0.002456  -0.074782   0.113663
   81  F  4  Y    0.172907  -0.090895  -0.001366  -0.139787   0.194226
   82  F  4  Z    0.000025   0.001118   0.197551  -0.000038  -0.006061
   83  F  4  S   -0.000345   0.034029   0.048309   0.000005  -0.000009
   84  F  4  X    0.012645   0.018754  -0.007509  -0.008737   0.013283
   85  F  4  Y    0.024095  -0.009711   0.004014  -0.016331   0.022694
   86  F  4  Z    0.000092  -0.008684   0.015000  -0.000006  -0.000706
   87  F  4 XX   -0.001261  -0.001776   0.001534   0.001217  -0.001875
   88  F  4 YY    0.001269   0.001041   0.002265  -0.001219   0.001700
   89  F  4 ZZ    0.000002  -0.000339  -0.005322   0.000001   0.000176
   90  F  4 XY   -0.001010   0.002408   0.000634   0.000938  -0.001228
   91  F  4 XZ   -0.001405  -0.004023  -0.004144   0.001381  -0.002015
   92  F  4 YZ   -0.002726   0.002117   0.002220   0.002580  -0.003630
   93  F  5  S    0.000009  -0.000906   0.001274   0.000000   0.000000
   94  F  5  S    0.000017  -0.001693   0.002381   0.000000   0.000001
   95  F  5  X    0.065251   0.134299  -0.012509  -0.052793  -0.079582
   96  F  5  Y    0.125273  -0.070198   0.006655  -0.098650  -0.135933
   97  F  5  Z    0.000190  -0.014895   0.161599  -0.000038  -0.004312
   98  F  5  S   -0.000065   0.006308  -0.008876  -0.000001  -0.000002
   99  F  5  X    0.098475   0.202940  -0.019234  -0.079771  -0.120250
  100  F  5  Y    0.189066  -0.106080   0.010234  -0.149063  -0.205399
  101  F  5  Z    0.000291  -0.022884   0.244458  -0.000057  -0.006515
  102  F  5  S   -0.000263   0.025499  -0.035915  -0.000001  -0.000002
  103  F  5  X    0.090210   0.174152  -0.001358  -0.075216  -0.113384
  104  F  5  Y    0.172907  -0.090895   0.000680  -0.140549  -0.193668
  105  F  5  Z    0.000074  -0.002408   0.197550  -0.000053  -0.006141
  106  F  5  S   -0.000345   0.034200  -0.048188   0.000005   0.000009
  107  F  5  X    0.012644   0.018748   0.007612  -0.008788  -0.013250
  108  F  5  Y    0.024095  -0.009712  -0.004076  -0.016420  -0.022629
  109  F  5  Z   -0.000079   0.008568   0.015004  -0.000005  -0.000715
  110  F  5 XX   -0.001255  -0.001754  -0.001558   0.001219   0.001862
  111  F  5 YY    0.001260   0.001056  -0.002268  -0.001217  -0.001684
  112  F  5 ZZ    0.000005  -0.000382   0.005345  -0.000002  -0.000179
  113  F  5 XY   -0.001005   0.002397  -0.000613   0.000939   0.001219
  114  F  5 XZ    0.001407   0.004046  -0.004112  -0.001390  -0.002013
  115  F  5 YZ    0.002731  -0.002128   0.002198  -0.002599  -0.003626

                     21         22         23         24         25
                   -0.3840     0.2191     0.2202     0.2202     0.2202
                     A          A          A          A          A   
    1  B  1  S   -0.000000  -0.005660   0.000000   0.000035  -0.000021
    2  B  1  S   -0.000000  -0.009068   0.000000   0.000056  -0.000034
    3  B  1  X   -0.000000  -0.000010  -0.000002  -0.000853   0.001428
    4  B  1  Y    0.000000   0.000004   0.000001   0.001428   0.000852
    5  B  1  Z   -0.000054   0.000000   0.001658  -0.000002   0.000001
    6  B  1  S   -0.000000  -0.077109  -0.000000   0.000449  -0.000258
    7  B  1  X   -0.000000  -0.000262  -0.000041  -0.020360   0.034104
    8  B  1  Y    0.000000   0.000139   0.000032   0.034110   0.020349
    9  B  1  Z   -0.000071  -0.000000   0.039718  -0.000049   0.000019
   10  B  1  S    0.000000   3.536033  -0.000003  -0.020741   0.012239
   11  B  1  X   -0.000000   0.000299  -0.000126  -0.062321   0.104964
   12  B  1  Y    0.000000   0.000044   0.000098   0.104817   0.062874
   13  B  1  Z   -0.000021  -0.000004   0.121637  -0.000149   0.000059
   14  B  1  S   -0.000000   2.235911  -0.000006  -0.013434   0.008132
   15  B  1  X    0.000000  -0.009917  -0.001694  -0.835482   1.400000
   16  B  1  Y   -0.000000   0.005294   0.001314   1.399985   0.835497
   17  B  1  Z    0.000034  -0.000011   1.630267  -0.001997   0.000781
   18  B  1 XX   -0.000000  -0.006889   0.000031  -0.003014  -0.010648
   19  B  1 YY   -0.000000  -0.006846   0.000044   0.014091   0.003989
   20  B  1 ZZ    0.000000  -0.006987  -0.000075  -0.010948   0.006586
   21  B  1 XY    0.000000   0.000033  -0.000007   0.001046  -0.010224
   22  B  1 XZ   -0.000068  -0.000000   0.013050  -0.000045   0.000029
   23  B  1 YZ    0.000037   0.000000  -0.006984   0.000044   0.000002
   24  F  2  S   -0.000000   0.007704   0.000007   0.000347  -0.005267
   25  F  2  S   -0.000000   0.012048   0.000010   0.000532  -0.008090
   26  F  2  X   -0.000126   0.003406   0.000015   0.008015  -0.012642
   27  F  2  Y    0.000093   0.001601  -0.000013  -0.013624  -0.007632
   28  F  2  Z   -0.105214  -0.000002  -0.015814   0.000019  -0.000008
   29  F  2  S    0.000000  -0.055937  -0.000049  -0.002573   0.038994
   30  F  2  X   -0.000191   0.009780   0.000033   0.018516  -0.027495
   31  F  2  Y    0.000140   0.004656  -0.000032  -0.031815  -0.016804
   32  F  2  Z   -0.158981  -0.000007  -0.036839   0.000045  -0.000021
   33  F  2  S    0.000000   0.071598   0.000056   0.002905  -0.044895
   34  F  2  X   -0.000180  -0.032682  -0.000042  -0.015766   0.033993
   35  F  2  Y    0.000132  -0.016167   0.000019   0.025481   0.019490
   36  F  2  Z   -0.149913   0.000024   0.029922  -0.000036   0.000008
   37  F  2  S   -0.000000  -1.548220  -0.000581  -0.025296   0.462564
   38  F  2  X   -0.000021  -0.288694   0.000334   0.163729  -0.276523
   39  F  2  Y    0.000015  -0.146337  -0.000251  -0.269696  -0.164479
   40  F  2  Z   -0.017519   0.000223  -0.315251   0.000384  -0.000147
   41  F  2 XX   -0.000006  -0.005119  -0.000005   0.000241   0.004043
   42  F  2 YY    0.000003  -0.004577  -0.000006  -0.000803   0.003589
   43  F  2 ZZ    0.000003  -0.004390  -0.000003  -0.000182   0.003509
   44  F  2 XY    0.000000  -0.000425  -0.000001  -0.000443   0.000257
   45  F  2 XZ   -0.002712   0.000001  -0.000698   0.000001  -0.000001
   46  F  2 YZ   -0.001691   0.000000  -0.000281   0.000001  -0.000001
   47  F  3  S   -0.000000   0.007704   0.000011   0.004815   0.002164
   48  F  3  S   -0.000000   0.012048   0.000016   0.007394   0.003324
   49  F  3  X   -0.000147   0.000558   0.000016   0.007985  -0.013627
   50  F  3  Y    0.000107  -0.003723  -0.000011  -0.012613  -0.007703
   51  F  3  Z   -0.117266  -0.000004  -0.015813   0.000020  -0.000007
   52  F  3  S    0.000000  -0.055934  -0.000078  -0.035645  -0.016013
   53  F  3  X   -0.000222   0.001554   0.000037   0.018353  -0.031855
   54  F  3  Y    0.000162  -0.010723  -0.000021  -0.027387  -0.017080
   55  F  3  Z   -0.177193  -0.000011  -0.036838   0.000050  -0.000016
   56  F  3  S    0.000000   0.071587   0.000090   0.040994   0.018484
   57  F  3  X   -0.000210  -0.004677  -0.000033  -0.016374   0.025213
   58  F  3  Y    0.000153   0.036166   0.000043   0.034056   0.019232
   59  F  3  Z   -0.167086   0.000038   0.029922  -0.000028   0.000019
   60  F  3  S   -0.000000  -1.548472  -0.000930  -0.420140  -0.194485
   61  F  3  X   -0.000024  -0.038399   0.000329   0.162453  -0.270672
   62  F  3  Y    0.000018   0.321422  -0.000266  -0.277635  -0.162539
   63  F  3  Z   -0.019524   0.000347  -0.315253   0.000379  -0.000152
   64  F  3 XX   -0.000000  -0.004403  -0.000007  -0.003171  -0.001539
   65  F  3 YY   -0.000006  -0.005292  -0.000010  -0.003833  -0.001543
   66  F  3 ZZ    0.000006  -0.004390  -0.000005  -0.003184  -0.001485
   67  F  3 XY    0.000005   0.000125  -0.000000  -0.000215   0.000709
   68  F  3 XZ   -0.000108   0.000000  -0.000153   0.000000   0.000001
   69  F  3 YZ    0.003561  -0.000001   0.000737  -0.000002  -0.000000
   70  F  4  S    0.000004   0.007660   0.004325  -0.002684   0.001612
   71  F  4  S    0.000006   0.011981   0.006643  -0.004125   0.002477
   72  F  4  X   -0.135905  -0.001791   0.000450   0.007849  -0.013425
   73  F  4  Y    0.079548   0.000961  -0.000244  -0.013442  -0.008184
   74  F  4  Z    0.111880  -0.003030  -0.015124  -0.000382   0.000233
   75  F  4  S   -0.000016  -0.055613  -0.032013   0.019863  -0.011929
   76  F  4  X   -0.205355  -0.005240   0.001954   0.017740  -0.030948
   77  F  4  Y    0.120198   0.002808  -0.001055  -0.031022  -0.019242
   78  F  4  Z    0.169057  -0.008755  -0.033783  -0.001764   0.001069
   79  F  4  S   -0.000016   0.071221   0.036854  -0.022911   0.013763
   80  F  4  X   -0.193645   0.018336   0.003890  -0.017840   0.027203
   81  F  4  Y    0.113343  -0.009818  -0.002076   0.027040   0.014532
   82  F  4  Z    0.159379   0.029588   0.036186  -0.004036   0.002416
   83  F  4  S    0.000072  -1.545452  -0.381643   0.242129  -0.145429
   84  F  4  X   -0.022640   0.167793  -0.002001   0.161990  -0.271040
   85  F  4  Y    0.013251  -0.089870   0.001005  -0.271003  -0.161489
   86  F  4  Z    0.018599   0.265196  -0.319091   0.001133  -0.000592
   87  F  4 XX    0.003784  -0.004601  -0.003276   0.001721  -0.000627
   88  F  4 YY    0.000833  -0.004430  -0.003012   0.001506  -0.001311
   89  F  4 ZZ   -0.004618  -0.004963  -0.002850   0.002433  -0.001461
   90  F  4 XY   -0.002721   0.000148   0.000229   0.000263   0.000155
   91  F  4 XZ    0.001389  -0.000438  -0.000388   0.000123   0.000244
   92  F  4 YZ   -0.000922   0.000235   0.000208   0.000271   0.000430
   93  F  5  S   -0.000004   0.007660  -0.004342  -0.002661   0.001603
   94  F  5  S   -0.000006   0.011981  -0.006670  -0.004090   0.002463
   95  F  5  X    0.136179  -0.001784  -0.000417   0.007852  -0.013426
   96  F  5  Y   -0.079748   0.000955   0.000218  -0.013444  -0.008183
   97  F  5  Z    0.111402   0.003037  -0.015120   0.000418  -0.000247
   98  F  5  S    0.000016  -0.055614   0.032140   0.019694  -0.011861
   99  F  5  X    0.205769  -0.005218  -0.001877   0.017754  -0.030955
  100  F  5  Y   -0.120501   0.002792   0.000994  -0.031031  -0.019237
  101  F  5  Z    0.168335   0.008774  -0.033764   0.001842  -0.001100
  102  F  5  S    0.000015   0.071222  -0.037001  -0.022716   0.013685
  103  F  5  X    0.194035   0.018264  -0.003953  -0.017810   0.027189
  104  F  5  Y   -0.113628  -0.009764   0.002121   0.027021   0.014541
  105  F  5  Z    0.158698  -0.029652   0.036225   0.003939  -0.002379
  106  F  5  S   -0.000072  -1.545468   0.383164   0.240111  -0.144622
  107  F  5  X    0.022685   0.167147   0.002657   0.161976  -0.271034
  108  F  5  Y   -0.013284  -0.089383  -0.001511  -0.270996  -0.161492
  109  F  5  Z    0.018519  -0.265758  -0.319114  -0.000343   0.000283
  110  F  5 XX   -0.003779  -0.004599   0.003285   0.001703  -0.000621
  111  F  5 YY   -0.000830  -0.004430   0.003022   0.001491  -0.001303
  112  F  5 ZZ    0.004609  -0.004966   0.002868   0.002417  -0.001456
  113  F  5 XY    0.002716   0.000147  -0.000227   0.000264   0.000154
  114  F  5 XZ    0.001418   0.000438  -0.000389  -0.000118  -0.000247
  115  F  5 YZ   -0.000940  -0.000234   0.000208  -0.000275  -0.000430

                     26         27         28         29         30
                    0.4742     0.4743     0.4743     0.5215     0.5280
                     A          A          A          A          A   
    1  B  1  S    0.000005   0.000019  -0.000000  -0.025724   0.000000
    2  B  1  S    0.000010   0.000039  -0.000000  -0.073718   0.000000
    3  B  1  X    0.041609   0.066386   0.000065   0.000037  -0.000000
    4  B  1  Y    0.066382  -0.041607  -0.000055  -0.000018  -0.000000
    5  B  1  Z    0.000012  -0.000084   0.078352   0.000000   0.000007
    6  B  1  S   -0.000002   0.000086   0.000000  -0.571934   0.000000
    7  B  1  X   -0.043458  -0.069318  -0.000067  -0.000086  -0.000000
    8  B  1  Y   -0.069337   0.043447   0.000057   0.000024  -0.000000
    9  B  1  Z   -0.000012   0.000088  -0.081684   0.000000  -0.000004
   10  B  1  S   -0.000431  -0.004896  -0.000008  18.645962  -0.000003
   11  B  1  X    2.217960   3.536384   0.003453   0.004321   0.000000
   12  B  1  Y    3.538343  -2.216292  -0.002908  -0.001506   0.000001
   13  B  1  Z    0.000631  -0.004471   4.171220  -0.000011  -0.000193
   14  B  1  S    0.000166   0.000890  -0.000000  -1.462093   0.000001
   15  B  1  X   -0.225982  -0.360848  -0.000352  -0.000530  -0.000000
   16  B  1  Y   -0.360591   0.226197   0.000297   0.000139  -0.000000
   17  B  1  Z   -0.000064   0.000457  -0.425821   0.000002  -0.000081
   18  B  1 XX    0.034208   0.006701  -0.000091  -0.169397   0.000008
   19  B  1 YY   -0.031434   0.033774  -0.000050  -0.169382  -0.000012
   20  B  1 ZZ   -0.002758  -0.040356   0.000140  -0.169397   0.000004
   21  B  1 XY    0.027185   0.017661   0.000056   0.000026   0.000006
   22  B  1 XZ   -0.000028  -0.000068  -0.041268   0.000000   0.004105
   23  B  1 YZ   -0.000063   0.000067   0.022080  -0.000000   0.007693
   24  F  2  S   -0.014990  -0.009138   0.000004   0.009291  -0.000000
   25  F  2  S   -0.026679  -0.016264   0.000008   0.017103  -0.000000
   26  F  2  X   -0.031088  -0.013680   0.000019   0.010220  -0.000070
   27  F  2  Y   -0.009726  -0.016423  -0.000002   0.004927   0.000052
   28  F  2  Z    0.000029   0.000006   0.009999  -0.000008  -0.058201
   29  F  2  S    0.091844   0.055976  -0.000027  -0.052607   0.000000
   30  F  2  X   -0.002399  -0.003713  -0.000004  -0.002557  -0.000051
   31  F  2  Y   -0.003713   0.002277   0.000003  -0.001412   0.000037
   32  F  2  Z   -0.000001   0.000005  -0.004360   0.000002  -0.042060
   33  F  2  S    0.074124   0.045345  -0.000022  -0.136904   0.000000
   34  F  2  X   -0.311829  -0.135521   0.000193   0.128134  -0.000388
   35  F  2  Y   -0.095597  -0.167132  -0.000019   0.063073   0.000286
   36  F  2  Z    0.000294   0.000058   0.103879  -0.000098  -0.322926
   37  F  2  S    3.182323   1.937325  -0.000928  -3.911621   0.000002
   38  F  2  X    2.182199   0.932750  -0.001382  -2.206675   0.000816
   39  F  2  Y    0.651793   1.189492   0.000150  -1.101642  -0.000601
   40  F  2  Z   -0.002073  -0.000383  -0.756232   0.001674   0.678696
   41  F  2 XX   -0.010052  -0.001550   0.000010   0.009929  -0.000005
   42  F  2 YY    0.001625  -0.002646  -0.000004   0.001160   0.000006
   43  F  2 ZZ    0.003114   0.000948  -0.000005  -0.001766  -0.000001
   44  F  2 XY   -0.004311  -0.006859   0.000003   0.006736  -0.000003
   45  F  2 XZ    0.000015  -0.000001   0.004417  -0.000010  -0.002600
   46  F  2 YZ    0.000004   0.000006   0.003253  -0.000005  -0.003929
   47  F  3  S    0.013600  -0.011100   0.000005   0.009293  -0.000000
   48  F  3  S    0.024204  -0.019756   0.000008   0.017108  -0.000000
   49  F  3  X    0.009900   0.004769   0.000010   0.001567   0.000073
   50  F  3  Y   -0.028175   0.024572  -0.000020  -0.011243  -0.000053
   51  F  3  Z   -0.000038   0.000021   0.009993  -0.000012   0.058193
   52  F  3  S   -0.083330   0.067999  -0.000029  -0.052623   0.000000
   53  F  3  X   -0.002277  -0.003677  -0.000004  -0.000247   0.000053
   54  F  3  Y   -0.003777   0.002366   0.000003   0.002906  -0.000038
   55  F  3  Z   -0.000001   0.000005  -0.004366   0.000003   0.042049
   56  F  3  S   -0.067166   0.055033  -0.000023  -0.136920   0.000000
   57  F  3  X    0.101289   0.050521   0.000102   0.018595   0.000404
   58  F  3  Y   -0.281523   0.246258  -0.000200  -0.141664  -0.000295
   59  F  3  Z   -0.000380   0.000211   0.103858  -0.000152   0.322909
   60  F  3  S   -2.887878   2.353473  -0.000993  -3.912818  -0.000001
   61  F  3  X   -0.726506  -0.376739  -0.000738  -0.307513  -0.000850
   62  F  3  Y    1.960637  -1.719793   0.001424   2.447708   0.000620
   63  F  3  Z    0.002668  -0.001459  -0.756161   0.002620  -0.678565
   64  F  3 XX   -0.001032   0.003347  -0.000002  -0.001527  -0.000004
   65  F  3 YY    0.008805  -0.008655   0.000012   0.012617   0.000007
   66  F  3 ZZ   -0.002957   0.001365  -0.000009  -0.001766  -0.000003
   67  F  3 XY   -0.004963  -0.002569  -0.000005  -0.002083  -0.000004
   68  F  3 XZ   -0.000007  -0.000005  -0.000257  -0.000002  -0.001826
   69  F  3 YZ    0.000018  -0.000010  -0.005480   0.000018  -0.004344
   70  F  4  S    0.000692   0.010108   0.014329   0.009303   0.000002
   71  F  4  S    0.001231   0.017990   0.025503   0.017125   0.000003
   72  F  4  X    0.004361  -0.005545  -0.019822  -0.005921   0.027448
   73  F  4  Y    0.009005   0.002199   0.010613   0.003168   0.051292
   74  F  4  Z   -0.001537  -0.022410  -0.021741  -0.009168   0.000013
   75  F  4  S   -0.004240  -0.061939  -0.087789  -0.052675  -0.000008
   76  F  4  X   -0.002301  -0.003729  -0.000032   0.001394   0.019838
   77  F  4  Y   -0.003663   0.002337   0.000018  -0.000750   0.037065
   78  F  4  Z   -0.000010  -0.000055  -0.004437   0.002452   0.000011
   79  F  4  S   -0.003391  -0.049915  -0.070920  -0.137047  -0.000029
   80  F  4  X    0.045498  -0.053316  -0.199988  -0.073634   0.152274
   81  F  4  Y    0.093226   0.020533   0.107075   0.039423   0.284599
   82  F  4  Z   -0.015471  -0.225966  -0.216128  -0.116103   0.000061
   83  F  4  S   -0.147298  -2.145375  -3.037915  -3.915824   0.000212
   84  F  4  X   -0.333827   0.353533   1.407276   1.260678  -0.319987
   85  F  4  Y   -0.677841  -0.130933  -0.753430  -0.675137  -0.597956
   86  F  4  Z    0.108899   1.589854   1.495071   2.012081  -0.000140
   87  F  4 XX   -0.001872  -0.002340   0.002881   0.002052  -0.000320
   88  F  4 YY    0.001599  -0.001649  -0.001343  -0.000669   0.000323
   89  F  4 ZZ    0.000517   0.007570   0.003546   0.007951  -0.000001
   90  F  4 XY   -0.001255   0.000889  -0.003660  -0.002360  -0.000247
   91  F  4 XZ   -0.002098   0.003537   0.006837   0.007019  -0.002212
   92  F  4 YZ   -0.004476  -0.001511  -0.003661  -0.003759  -0.004135
   93  F  5  S    0.000691   0.010096  -0.014338   0.009303  -0.000002
   94  F  5  S    0.001230   0.017967  -0.025519   0.017125  -0.000003
   95  F  5  X    0.004365  -0.005473   0.019774  -0.005899  -0.027451
   96  F  5  Y    0.009002   0.002149  -0.010575   0.003152  -0.051290
   97  F  5  Z    0.001542   0.022408  -0.021829   0.009189  -0.000016
   98  F  5  S   -0.004236  -0.061861   0.087844  -0.052675   0.000008
   99  F  5  X   -0.002301  -0.003729   0.000025   0.001388  -0.019840
  100  F  5  Y   -0.003664   0.002336  -0.000012  -0.000745  -0.037064
  101  F  5  Z    0.000008   0.000065  -0.004437  -0.002456  -0.000011
  102  F  5  S   -0.003388  -0.049851   0.070964  -0.137047   0.000029
  103  F  5  X    0.045544  -0.052587   0.199507  -0.073351  -0.152290
  104  F  5  Y    0.093193   0.020023  -0.106699   0.039210  -0.284590
  105  F  5  Z    0.015523   0.225939  -0.217014   0.116355  -0.000104
  106  F  5  S   -0.147176  -2.142658   3.039847  -3.915838  -0.000211
  107  F  5  X   -0.334150   0.348404  -1.403931   1.255776   0.320020
  108  F  5  Y   -0.677611  -0.127341   0.750824  -0.671440   0.597938
  109  F  5  Z   -0.109270  -1.589607   1.501302  -2.016386   0.000207
  110  F  5 XX   -0.001863  -0.002358  -0.002850   0.002023   0.000311
  111  F  5 YY    0.001584  -0.001653   0.001356  -0.000681  -0.000310
  112  F  5 ZZ    0.000522   0.007587  -0.003593   0.007993  -0.000003
  113  F  5 XY   -0.001248   0.000902   0.003638  -0.002338   0.000240
  114  F  5 XZ    0.002103  -0.003501   0.006845  -0.007007  -0.002213
  115  F  5 YZ    0.004482   0.001486  -0.003661   0.003746  -0.004136

                     31         32         33         34         35
                    0.5280     0.5384     0.5500     0.5500     0.5500
                     A          A          A          A          A   
    1  B  1  S   -0.000103   0.017175   0.000000  -0.000005   0.000022
    2  B  1  S   -0.000241   0.017923   0.000000  -0.000006   0.000010
    3  B  1  X    0.000040   0.000107  -0.000017  -0.004678  -0.022146
    4  B  1  Y   -0.000026  -0.000031   0.000013  -0.022154   0.004673
    5  B  1  Z   -0.000000  -0.000000  -0.022664  -0.000009   0.000019
    6  B  1  S   -0.000878  -0.432807   0.000001   0.000130  -0.000882
    7  B  1  X   -0.000036   0.000087  -0.000006  -0.001679  -0.007929
    8  B  1  Y    0.000022  -0.000008   0.000005  -0.007937   0.001670
    9  B  1  Z    0.000000  -0.000001  -0.008177  -0.000003   0.000007
   10  B  1  S    0.031437  13.853024  -0.000039  -0.003647   0.027518
   11  B  1  X   -0.001154   0.002214   0.001074   0.304129   1.436491
   12  B  1  Y    0.000745  -0.000544  -0.000818   1.437295  -0.302471
   13  B  1  Z    0.000001  -0.000010   1.465721   0.000579  -0.001219
   14  B  1  S   -0.006586   1.416954  -0.000001  -0.000441   0.002449
   15  B  1  X   -0.000755  -0.001692   0.000836   0.236009   1.117795
   16  B  1  Y    0.000457   0.000646  -0.000638   1.117825  -0.235886
   17  B  1  Z    0.000001   0.000003   1.142171   0.000451  -0.000950
   18  B  1 XX    0.005445  -0.069087   0.000105  -0.035078  -0.021402
   19  B  1 YY   -0.001758  -0.069099   0.000067   0.048420  -0.024618
   20  B  1 ZZ   -0.004800  -0.069233  -0.000172  -0.013281   0.045536
   21  B  1 XY   -0.006249   0.000007  -0.000065  -0.022895  -0.030515
   22  B  1 XZ   -0.000020  -0.000000   0.048443  -0.000003   0.000093
   23  B  1 YZ    0.000011   0.000000  -0.025920   0.000100  -0.000051
   24  F  2  S    0.000051  -0.021940  -0.000004   0.009993   0.012512
   25  F  2  S    0.000095  -0.041838  -0.000008   0.018444   0.023090
   26  F  2  X   -0.026055   0.017377   0.000071  -0.018766   0.031613
   27  F  2  Y    0.052059   0.008936  -0.000035   0.057799  -0.037607
   28  F  2  Z    0.000077  -0.000013   0.076811   0.000057  -0.000031
   29  F  2  S   -0.000253   0.093823   0.000023  -0.052808  -0.066175
   30  F  2  X   -0.018912   0.046642   0.000070  -0.025985   0.018539
   31  F  2  Y    0.037593   0.023547  -0.000031   0.049231  -0.040214
[...]
         3        0.0000570905
                                 0.000017111212444
         4        0.0000174594
                                 0.000003578008600
         5        0.0000042079
                                 0.000000432603616
         6        0.0000006239
                                 0.000000056944876
         7        0.0000000718
                                 0.000000023501225
         8        0.0000000275
                                 0.000000003943064
         9        0.0000000053
                                 0.000000000290936
        10        0.0000000005
                                 0.000000000019502
        11        0.0000000000

      CONVERGED - WAVEFUNCTIONS STATIONARY


      COMPUTING LAST CONTRIBUTIONS TO THE 1-PARTICLE DENSITY
 ..... DONE WITH MP2 ENERGY .....
 CPU     0: STEP CPU TIME=     0.77 TOTAL CPU TIME=         50.4 (      0.8 MIN)
 TOTAL WALL CLOCK TIME=         57.6 SECONDS, CPU UTILIZATION IS    87.48%
 ..... END OF 1-ELECTRON GRADIENT ......
 CPU     0: STEP CPU TIME=     0.00 TOTAL CPU TIME=         50.4 (      0.8 MIN)
 TOTAL WALL CLOCK TIME=         57.6 SECONDS, CPU UTILIZATION IS    87.47%

      COMPUTING 2-PARTICLE GRADIENT
      FORMING BACK-TRANSFORMED AMPLITUDES
 THE COARSE/FINE SCHWARZ SCREENINGS SKIPPED      80115/     58159 BLOCKS.
 THE NUMBER OF GRADIENT INTEGRAL BLOCKS COMPUTED WAS    276446
 ..... DONE WITH MP2 GRADIENT .....
 CPU     0: STEP CPU TIME=     0.55 TOTAL CPU TIME=         50.9 (      0.8 MIN)
 TOTAL WALL CLOCK TIME=         58.2 SECONDS, CPU UTILIZATION IS    87.51%

 UNITS ARE HARTREE/BOHR    E'X               E'Y               E'Z 
    1 B               -0.000537551       0.000294423       0.001324608
    2 F               -0.001596307      -0.000708172       0.000056424
    3 F               -0.000282043       0.001686742       0.000057171
    4 F                0.000733043      -0.000382913       0.001716428
    5 F                0.001682859      -0.000890081      -0.003154630
  $VIB   
          IVIB=   2 IATOM=   5 ICOORD=   3 E=     -423.8154300735
 -5.375511675E-04 2.944229491E-04 1.324608342E-03-1.596307294E-03-7.081719881E-04
  5.642356179E-05-2.820434514E-04 1.686742470E-03 5.717074016E-05 7.330428822E-04
 -3.829126225E-04 1.716427746E-03 1.682859031E-03-8.900808039E-04-3.154630395E-03
 -7.599985474E-03 4.152305843E-03 1.904536269E-02
 ...... END OF NUMERICAL HESSIAN CALCULATION ......
 CPU     0: STEP CPU TIME=     0.01 TOTAL CPU TIME=         50.9 (      0.8 MIN)
 TOTAL WALL CLOCK TIME=         58.2 SECONDS, CPU UTILIZATION IS    87.50%

          ---------------
          ENERGY GRADIENT
          ---------------

 UNITS ARE HARTREE/BOHR    E'X               E'Y               E'Z 
    1 B               -0.000054852       0.000036406      -0.000000200
    2 F               -0.001337187      -0.000685119       0.000000926
    3 F               -0.000157324       0.001458162       0.000001454
    4 F                0.000776261      -0.000405876       0.001143910
    5 F                0.000773102      -0.000403572      -0.001146090

          -------------------------------
          CARTESIAN FORCE CONSTANT MATRIX
          -------------------------------

                                   1                          2
                               B                          F         
                          X        Y        Z        X        Y        Z
  1   B            X 0.377580-0.000028-0.000001-0.150192-0.047885 0.000072
                   Y-0.000028 0.377660 0.000001-0.047886-0.078458 0.000036
                   Z-0.000001 0.000001 0.377580 0.000073 0.000036-0.054500
  2   F            X-0.150192-0.047886 0.000073 0.232405 0.089105-0.000135
                   Y-0.047885-0.078458 0.000036 0.089105 0.098897-0.000068
                   Z 0.000072 0.000036-0.054500-0.000135-0.000068 0.054309
  3   F            X-0.056324 0.014701 0.000016-0.003226-0.034104-0.000014
                   Y 0.014697-0.172433-0.000126-0.024073-0.042014-0.000019
                   Z 0.000016-0.000126-0.054494-0.000005-0.000007 0.011085
  4   F            X-0.085647 0.016685-0.049810-0.039572-0.003532-0.033647
                   Y 0.016686-0.063428 0.026674-0.008558 0.010795-0.006150
                   Z-0.049814 0.026676-0.134112-0.025881-0.002270-0.005382
  5   F            X-0.085406 0.016529 0.049722-0.039426-0.003589 0.033723
                   Y 0.016530-0.063330-0.026585-0.008590 0.010780 0.006201
                   Z 0.049727-0.026587-0.134454 0.025948 0.002309-0.005511

                                   3                          4
                               F                          F         
                          X        Y        Z        X        Y        Z
  3   F            X 0.057732-0.027374-0.000029 0.000880 0.023438-0.012463
                   Y-0.027374 0.273697 0.000235 0.018417-0.029683 0.022795
                   Z-0.000029 0.000235 0.054312-0.013543 0.031410-0.005369
  4   F            X 0.000880 0.018417-0.013543 0.112261-0.031047 0.092661
                   Y 0.023438-0.029683 0.031410-0.031047 0.070937-0.049631
                   Z-0.012463 0.022795-0.005369 0.092661-0.049631 0.202537
  5   F            X 0.000943 0.018336 0.013561 0.012076-0.000520-0.004508
                   Y 0.023339-0.029583-0.031511-0.000522 0.011381 0.002430
                   Z 0.012491-0.022884-0.005532 0.004337-0.002302-0.057685

                                   5
                               F         
                          X        Y        Z
  5   F            X 0.111811-0.030756-0.092497
                   Y-0.030756 0.070755 0.049464
                   Z-0.092497 0.049464 0.203171

          ------------------------          ----------------
          DIPOLE DERIVATIVE TENSOR          (DEBYE/ANGSTROM)
          ------------------------          ----------------

        ATOM                 MU-X           MU-Y           MU-Z
     B          D/DX    10.258573749   -0.000154255   -0.000000730
                D/DY    -0.000166483   10.258069479    0.000000413
                D/DZ    -0.000000760    0.000000399   10.257059137
     F          D/DX    -4.001091831   -1.232390471    0.001867092
                D/DY    -1.232656978   -2.154649913    0.000934554
                D/DZ     0.001866563    0.000934057   -1.537769137
     F          D/DX    -1.584946948    0.377956192    0.000404095
                D/DY     0.378359634   -4.570647363   -0.003243843
                D/DZ     0.000404483   -0.003243187   -1.537701289
     F          D/DX    -2.339506040    0.429304117   -1.281696444
                D/DY     0.429241615   -1.767760973    0.686343957
                D/DZ    -1.281049148    0.686099174   -3.586463198
     F          D/DX    -2.333269341    0.425285508    1.279425930
                D/DY     0.425223669   -1.765243667   -0.684035125
                D/DZ     1.278779358   -0.683790908   -3.595212223

          --------------------------------------------------------
          NORMAL COORDINATE ANALYSIS IN THE HARMONIC APPROXIMATION
          --------------------------------------------------------

     *******************************************************
     * THIS IS NOT A STATIONARY POINT ON THE MOLECULAR PES *
     *     THE VIBRATIONAL ANALYSIS IS NOT VALID !!!       *
     *******************************************************

          ATOMIC WEIGHTS (AMU)

    1     B                11.00931
    2     F                18.99840
    3     F                18.99840
    4     F                18.99840
    5     F                18.99840

 MODES    1 TO    6 ARE TAKEN AS ROTATIONS AND TRANSLATIONS.

 ANALYZING SYMMETRY OF NORMAL MODES...

     FREQUENCIES IN CM**-1, IR INTENSITIES IN DEBYE**2/AMU-ANGSTROM**2,
     REDUCED MASSES IN AMU.

     *******************************************************
     * THIS IS NOT A STATIONARY POINT ON THE MOLECULAR PES *
     *     THE VIBRATIONAL ANALYSIS IS NOT VALID !!!       *
     *******************************************************

                            1           2           3           4           5
       FREQUENCY:         0.18        0.11        0.02       26.84       27.20  
        SYMMETRY:         A           A           A           A           A   
    REDUCED MASS:     17.40076    17.40063    17.40062    18.99832    18.99840
    IR INTENSITY:      0.00000     0.00000     0.00000     0.00000     0.00000

  1   B            X -0.00031009  0.09832856  0.04271897  0.00000136  0.00000021
                   Y  0.00008046 -0.04271907  0.09832926 -0.00000016 -0.00000124
                   Z  0.10720261  0.00031658  0.00004973 -0.00071100  0.00006235
  2   F            X -0.00031158  0.09857024  0.04272146 -0.00010238 -0.00004378
                   Y  0.00008273 -0.04319284  0.09833151  0.00010038  0.00027096
                   Z  0.10668065  0.00031563  0.00005085 -0.07103942  0.12166004
  3   F            X -0.00030899  0.09779875  0.04271841 -0.00006909  0.00029567
                   Y  0.00008118 -0.04278814  0.09833484  0.00008858  0.00014980
                   Z  0.10666745  0.00031592  0.00004873 -0.09192216 -0.10678330
  4   F            X -0.00096917  0.09847447  0.04271967 -0.09569856  0.06298673
                   Y  0.00043942 -0.04244672  0.09832954  0.06300352  0.09559480
                   Z  0.10774165  0.00031969  0.00005030  0.08025595 -0.00731287
  5   F            X  0.00034934  0.09847506  0.04271809  0.09587595 -0.06323802
                   Y -0.00028134 -0.04244825  0.09832765 -0.06319343 -0.09602064
                   Z  0.10773930  0.00031469  0.00004909  0.07990695 -0.00733514

 TRANS. SAYVETZ    X -0.02697947  8.55495227  3.71670822  0.00012747  0.00001376
                   Y  0.00700293 -3.71667721  8.55505530 -0.00001986 -0.00011006
                   Z  9.32729258  0.02753599  0.00432764 -0.06099794  0.00503194
               TOTAL  9.32733423  9.32746783  9.32753504  0.06099808  0.00503316

   ROT. SAYVETZ    X -0.05996447 -0.00004830 -0.00015393-10.48194153-15.91201243
                   Y -0.10971662 -0.00013674  0.00011192-15.91225311 10.48249517
                   Z -0.00027970  0.07234566 -0.00008970 -0.00734844 -0.02919825
               TOTAL  0.12503420  0.07234580  0.00021040 19.05442078 19.05454531

                            6           7           8           9          10
       FREQUENCY:        27.40      345.65      345.75      509.82      509.85  
        SYMMETRY:         A           A           A           A           A   
    REDUCED MASS:     18.99838    18.99840    18.99840    18.14167    18.14169
    IR INTENSITY:      0.00000     0.00000     0.00000     0.06858     0.06868

  1   B            X  0.00037355  0.00000020 -0.00003150 -0.00049527  0.04006443
                   Y -0.00015720 -0.00000035  0.00002333 -0.00097111  0.06560966
                   Z -0.00000028 -0.00000694  0.00000018 -0.07687620 -0.00108724
  2   F            X -0.06249159 -0.00008565  0.05131990 -0.00167350  0.13106140
                   Y  0.12547686  0.00034442 -0.10264157  0.00000030  0.01273936
                   Z -0.00015910  0.11473913  0.00034619  0.08915029  0.00112647
  3   F            X  0.13978658 -0.00063835  0.11385491  0.00094609 -0.06914591
                   Y  0.01722797  0.00004234  0.01425118 -0.00184555  0.10560089
                   Z  0.00019875 -0.11471321 -0.00062822  0.08916772  0.00145476
  4   F            X -0.03806673 -0.05376454 -0.08273412 -0.09678025 -0.04395141
                   Y -0.07199003 -0.10131530  0.04368462  0.05328426 -0.07744658
                   Z -0.00001802 -0.00032763  0.06630907 -0.06652003  0.00529201
  5   F            X -0.03773616  0.05448859 -0.08242148  0.09779539 -0.04118578
                   Y -0.07136849  0.10092901  0.04469236 -0.05087601 -0.07892262
                   Z -0.00002234  0.00030601 -0.06602693 -0.06724567 -0.00724316

 TRANS. SAYVETZ    X  0.03246002  0.00000313  0.00001813  0.00001367 -0.00009343
                   Y -0.01414983  0.00000511  0.00000203  0.00000485 -0.00017226
                   Z -0.00001657  0.00000526  0.00000398  0.00006864  0.00000092
               TOTAL  0.03541004  0.00000797  0.00001867  0.00007016  0.00019597

   ROT. SAYVETZ    X  0.02842240 -0.00360264 -0.00001944  0.00012368  0.00000009
                   Y -0.00992394  0.00298004  0.00003455  0.00124231  0.00000768
                   Z-19.05687421  0.00001350  0.00090946  0.00004392 -0.00042101
               TOTAL 19.05689798  0.00467545  0.00091032  0.00124922  0.00042108

                           11          12          13          14          15
       FREQUENCY:       509.92      736.93     1048.86     1048.88     1049.02  
        SYMMETRY:         A           A           A           A           A   
    REDUCED MASS:     18.14150    18.99840    11.97409    11.97411    11.97427
    IR INTENSITY:      0.06877     0.00000    11.31872    11.31602    11.31818

  1   B            X  0.06561511  0.00007984  0.25641252 -0.01790389 -0.08578974
                   Y -0.04008768  0.00003206  0.08538134 -0.00882366  0.25701789
                   Z  0.00008248 -0.00000057  0.01977570  0.27023999  0.00270808
  2   F            X  0.03490168 -0.10257723 -0.07480702  0.00554426 -0.00296865
                   Y  0.10195592 -0.05131933 -0.03472005  0.00276566 -0.02042685
                   Z -0.00018059  0.00007775 -0.00120511 -0.01707664 -0.00016462
  3   F            X -0.05799269 -0.01422282 -0.01458575  0.00094088  0.01347618
                   Y -0.09822294  0.11381437 -0.01831282  0.00208056 -0.08086662
                   Z -0.00025094  0.00012169 -0.00126298 -0.01706825 -0.00024009
  4   F            X -0.00708489  0.05849138 -0.03165980 -0.02558991  0.01938905
                   Y  0.00951514 -0.03134514  0.00288946  0.01486790 -0.02371165
                   Z  0.11038117  0.09358639 -0.02597899 -0.05978460  0.02217440
  5   F            X -0.00785801  0.05826294 -0.02752982  0.02947950  0.01981640
                   Y  0.00998763 -0.03117295  0.00066778 -0.01460099 -0.02392813
                   Z -0.10999775 -0.09378556  0.01698801 -0.06266262 -0.02333890

 TRANS. SAYVETZ    X -0.00020641  0.00001020  0.00009735 -0.00000624 -0.00001871
                   Y  0.00010446 -0.00008501  0.00003167 -0.00000103  0.00009633
                   Z -0.00000588 -0.00000110  0.00001282  0.00015639  0.00000153
               TOTAL  0.00023141  0.00008563  0.00010317  0.00015652  0.00009814

   ROT. SAYVETZ    X -0.00000075  0.00000013  0.00002504  0.00033598  0.00000662
                   Y -0.00003058  0.00000290  0.00004106  0.00054351  0.00000641
                   Z -0.00019346  0.00006259 -0.00041897  0.00003947 -0.00038018
               TOTAL  0.00019586  0.00006265  0.00042172  0.00064020  0.00038029

 REFERENCE ON SAYVETZ CONDITIONS - A. SAYVETZ, J.CHEM.PHYS., 7, 383-389(1939).

 NOTE - THE MODES J,K ARE ORTHONORMALIZED ACCORDING TO
 SUM ON I   M(I) * (X(I,J)*X(I,K) + Y(I,J)*Y(I,K) + Z(I,J)*Z(I,K)) = DELTA(J,K)

  MODE FREQ(CM**-1)  SYMMETRY  RED. MASS  IR INTENS.
     1       0.177    A       17.400756    0.000000
     2       0.106    A       17.400626    0.000000
     3       0.021    A       17.400622    0.000000
     4      26.840    A       18.998323    0.000000
     5      27.197    A       18.998399    0.000000
     6      27.399    A       18.998375    0.000000
     7     345.648    A       18.998400    0.000000
     8     345.746    A       18.998400    0.000000
     9     509.822    A       18.141667    0.068582
    10     509.855    A       18.141690    0.068685
    11     509.916    A       18.141496    0.068765
    12     736.933    A       18.998399    0.000001
    13    1048.865    A       11.974086   11.318724
    14    1048.881    A       11.974108   11.316015
    15    1049.020    A       11.974268   11.318177

     -------------------------------
     THERMOCHEMISTRY AT T=  298.15 K
     -------------------------------

 USING IDEAL GAS, RIGID ROTOR, HARMONIC NORMAL MODE APPROXIMATIONS.
 P=  1.01325E+05 PASCAL.
 ALL FREQUENCIES ARE SCALED BY   1.00000
 THE MOMENTS OF INERTIA ARE (IN AMU*BOHR**2)
    363.06765   363.09465   363.17060
 THE ROTATIONAL SYMMETRY NUMBER IS  1.0
 THE ROTATIONAL CONSTANTS ARE (IN GHZ)
      4.96626     4.96589     4.96485
      7 -     15 VIBRATIONAL MODES ARE USED IN THERMOCHEMISTRY.
 THE HARMONIC ZERO POINT ENERGY IS (SCALED BY   1.000)
        0.013907 HARTREE/MOLECULE     3052.342230 CM**-1/MOLECULE 
        8.727093 KCAL/MOL               36.514158 KJ/MOL

               Q               LN Q
 ELEC.     1.00000E+00       0.000000
 TRANS.    3.18973E+07      17.278033
 ROT.      7.83250E+04      11.268622
 VIB.      2.08289E+00       0.733755
 TOT.      5.20380E+12      29.280411

              E         H         G         CV        CP        S
           KJ/MOL    KJ/MOL    KJ/MOL   J/MOL-K   J/MOL-K   J/MOL-K
 ELEC.      0.000     0.000     0.000     0.000     0.000     0.000
 TRANS.     3.718     6.197   -42.831    12.472    20.786   164.443
 ROT.       3.718     3.718   -27.934    12.472    12.472   106.164
 VIB.      40.644    40.644    34.695    35.951    35.951    19.952
 TOTAL     48.081    50.560   -36.070    60.894    69.209   290.558
 VIB. THERMAL CORRECTION E(T)-E(0) = H(T)-H(0) =  4129.698 J/MOL

              E         H         G         CV        CP        S
         KCAL/MOL  KCAL/MOL  KCAL/MOL CAL/MOL-K CAL/MOL-K CAL/MOL-K
 ELEC.      0.000     0.000     0.000     0.000     0.000     0.000
 TRANS.     0.889     1.481   -10.237     2.981     4.968    39.303
 ROT.       0.889     0.889    -6.676     2.981     2.981    25.374
 VIB.       9.714     9.714     8.292     8.592     8.592     4.769
 TOTAL     11.492    12.084    -8.621    14.554    16.541    69.445
 VIB. THERMAL CORRECTION E(T)-E(0) = H(T)-H(0) =   987.022 CAL/MOL

     *******************************************************
     * THIS IS NOT A STATIONARY POINT ON THE MOLECULAR PES *
     *     THE VIBRATIONAL ANALYSIS IS NOT VALID !!!       *
     *******************************************************
 ......END OF NORMAL COORDINATE ANALYSIS......
 CPU     0: STEP CPU TIME=     0.00 TOTAL CPU TIME=         50.9 (      0.8 MIN)
 TOTAL WALL CLOCK TIME=         58.2 SECONDS, CPU UTILIZATION IS    87.50%
 AN INPUT FILE FOR -MOLPLT- HAS BEEN PUNCHED.

 AN AIMPAC INPUT FILE IS BEING WRITTEN TO FILE   7

               580000  WORDS OF DYNAMIC MEMORY USED
 EXECUTION OF GAMESS TERMINATED NORMALLY Thu Jun 27 15:21:43 2019
 DDI: 2942816 bytes (2.8 MB / 0 MWords) used by master data server.

 ----------------------------------------
 CPU timing information for all processes
 ========================================
 0: 50.20 + 0.953 = 50.973
 1: 50.590 + 0.418 = 51.08
 2: 51.378 + 0.560 = 51.939
 3: 51.226 + 0.446 = 51.673
 4: 51.840 + 0.736 = 52.577
 5: 51.811 + 0.553 = 52.365
 6: 51.951 + 0.593 = 52.545
 7: 51.772 + 0.471 = 52.244
 8: 51.519 + 0.727 = 52.247
 9: 51.539 + 0.384 = 51.924
 10: 51.519 + 0.510 = 52.30
 11: 51.661 + 0.413 = 52.75
 12: 52.455 + 0.550 = 53.06
 13: 51.443 + 0.430 = 51.873
 14: 51.403 + 0.507 = 51.910
 15: 52.370 + 0.347 = 52.718
 ----------------------------------------
 ddikick.x: exited gracefully.
----- accounting info -----
Files used on the master node node001 were:
-rw-r--r-- 1 mdi0316 at2  793324 Jun 27  2019 /data/scratch-no-backup/mdi0316/rungms/1224151/tmp/gms_bf4_N311_B3LYP_HES_MP2.dat
-rw-r--r-- 1 mdi0316 at2     963 Jun 27  2019 /data/scratch-no-backup/mdi0316/rungms/1224151/tmp/gms_bf4_N311_B3LYP_HES_MP2.F05
-rw-r--r-- 1 mdi0316 at2 3402880 Jun 27  2019 /data/scratch-no-backup/mdi0316/rungms/1224151/tmp/gms_bf4_N311_B3LYP_HES_MP2.F10
-rw-r--r-- 1 mdi0316 at2   11212 Jun 27  2019 /data/scratch-no-backup/mdi0316/rungms/1224151/tmp/gms_bf4_N311_B3LYP_HES_MP2.rst
Thu Jun 27 15:21:47 CEST 2019
0.266u 0.111s 1:02.09 0.5%	0+0k 89+4io 0pf+0w
