ITEM: TIMESTEP
0
ITEM: NUMBER OF ATOMS
160
ITEM: BOX BOUNDS pp pp pp
-4.0000000000000000e+01 4.0000000000000000e+01
-4.0000000000000000e+01 4.0000000000000000e+01
-4.0000000000000000e+01 4.0000000000000000e+01
ITEM: ATOMS id mass type x y z 
98 67 2 -39.7606 -32.9289 -38.5958 
99 15 3 -38.5677 -30.9368 -39.9535 
100 29 4 39.2864 -33.8146 -35.8472 
39 86.8 1 -16.156 -13.3535 -32.9216 
80 67 2 18.0709 -15.2414 -33.552 
81 15 3 18.8192 -17.5833 -32.461 
82 29 4 15.7137 -13.6906 -34.6859 
50 67 2 27.8684 -15.3072 -37.487 
51 15 3 27.0469 -13.204 -38.9485 
132 15 3 29.8991 -13.6806 -30.3279 
52 29 4 30.2465 -16.5196 -36.0303 
15 86.8 1 -10.805 -0.25449 -37.2088 
23 86.8 1 10.6912 6.56633 -39.6724 
60 15 3 -28.8016 18.875 -38.7411 
59 67 2 -31.0293 20.1598 -39.5295 
56 67 2 -28.4115 27.7147 -35.2537 
57 15 3 -27.6224 25.1594 -34.9669 
58 29 4 -28.6973 29.9993 -37.2402 
17 86.8 1 -5.49156 23.3027 -31.7598 
78 15 3 1.8091 22.1818 -39.0194 
26 86.8 1 -11.4076 33.0511 -30.9969 
4 86.8 1 -0.921555 31.4227 -38.5649 
34 86.8 1 10.3028 38.9862 -39.2581 
142 29 4 -32.2577 -39.7795 -20.6511 
9 86.8 1 29.0907 -33.235 -21.3637 
121 29 4 20.692 -32.2635 -20.7459 
119 67 2 19.5337 -29.4986 -21.2571 
120 15 3 20.001 -27.119 -22.4205 
20 86.8 1 28.7539 -12.8915 -27.5041 
131 67 2 27.232 -13.6428 -29.9816 
133 29 4 24.9466 -14.7501 -28.3089 
37 86.8 1 -26.977 37.0688 -25.3265 
27 86.8 1 -5.67109 -34.0726 -17.9854 
53 67 2 9.09742 -33.817 -10.2096 
55 29 4 6.61679 -34.2993 -11.9011 
36 86.8 1 -38.6043 -22.1061 -16.6375 
6 86.8 1 23.8607 -12.786 -14.7544 
31 86.8 1 -1.50903 -2.29971 -11.1654 
70 29 4 -4.69551 -0.787675 -18.2909 
68 67 2 -5.37584 1.57929 -16.5072 
69 15 3 -4.33667 3.64642 -15.1353 
3 86.8 1 -36.8171 14.2976 -19.4253 
104 67 2 -29.2217 14.6175 -10.0595 
105 15 3 -28.3787 13.5974 -12.4012 
140 67 2 -32.4112 37.8297 -18.7782 
141 15 3 -31.2414 36.6273 -16.6757 
149 67 2 -17.6286 35.2958 -14.2897 
150 15 3 -15.4892 36.9236 -14.2019 
151 29 4 -18.5117 32.3916 -14.4727 
115 29 4 18.4168 30.4831 -18.6517 
113 67 2 20.387 32.4428 -19.8866 
114 15 3 22.8335 33.5304 -19.6286 
54 15 3 11.5826 -34.6999 -9.68115 
145 29 4 -0.0290965 -28.3139 -2.0809 
143 67 2 0.715832 -25.3828 -1.76334 
144 15 3 2.43594 -23.4715 -2.55266 
122 67 2 38.6261 -22.7151 -5.47473 
123 15 3 39.652 -21.8436 -7.80341 
124 29 4 37.3554 -25.099 -4.07835 
125 67 2 -36.8296 -17.9695 -4.78929 
126 15 3 -35.1415 -16.0263 -5.56971 
127 29 4 -38.5432 -18.9685 -2.48434 
44 67 2 2.73372 -12.2714 -3.20626 
45 15 3 5.07382 -12.3746 -4.5284 
46 29 4 0.486709 -13.9528 -2.03528 
91 29 4 1.81825 -11.2423 -4.2634 
71 67 2 16.1497 -11.0825 -4.00909 
72 15 3 18.8343 -11.2316 -3.93576 
73 29 4 13.5794 -12.6292 -3.51032 
90 15 3 -1.37928 -7.40213 -6.44892 
89 67 2 0.730328 -9.01645 -6.02669 
116 67 2 -30.0062 8.29125 -4.63363 
118 29 4 -30.3442 5.44833 -5.65875 
18 86.8 1 -27.1548 9.41929 -9.98672 
117 15 3 -29.5393 9.77844 -2.44159 
7 86.8 1 22.1578 5.48786 -5.50354 
106 29 4 -30.6603 13.9657 -7.46092 
148 29 4 3.90088 11.1397 -1.50406 
108 15 3 -29.1279 22.6288 -0.531135 
2 86.8 1 7.29414 32.6479 -7.57523 
14 86.8 1 4.3055 -37.4315 9.39068 
32 86.8 1 22.9409 -32.624 9.22324 
38 86.8 1 16.9722 -28.6115 7.058 
1 86.8 1 -39.161 -19.1491 0.890539 
137 67 2 -13.9535 -12.2349 3.56335 
138 15 3 -12.8665 -10.3492 5.14355 
139 29 4 -14.1223 -15.2281 3.05391 
28 86.8 1 39.1683 -18.9824 2.40829 
10 86.8 1 -19.8872 -4.86895 7.63172 
16 86.8 1 -8.07335 -8.75822 0.604183 
29 86.8 1 -3.90748 7.0544 3.26793 
109 29 4 -33.1542 19.9149 1.95308 
146 67 2 1.9445 10.9902 0.819203 
147 15 3 1.48216 11.8133 3.33782 
107 67 2 -31.5893 21.9295 0.297933 
74 67 2 -16.0867 -30.8016 16.399 
76 29 4 -16.4474 -33.6371 17.4368 
101 67 2 -6.8918 -31.2178 15.883 
103 29 4 -6.23186 -34.1709 16.1843 
75 15 3 -14.4377 -28.6766 16.3867 
86 67 2 -4.41535 -25.7301 10.722 
87 15 3 -6.19312 -23.7315 10.4389 
88 29 4 -1.77661 -26.5191 12.0111 
102 15 3 -8.11597 -29.1262 17.0498 
30 86.8 1 -35.8338 -18.1154 14.9413 
5 86.8 1 -0.514897 -13.8698 11.0873 
11 86.8 1 26.393 -12.3701 14.9609 
92 67 2 -17.765 7.00213 12.3528 
93 15 3 -15.2213 7.6051 11.7198 
94 29 4 -19.5763 4.84404 13.4971 
155 67 2 -18.2647 6.44077 12.9538 
156 15 3 -19.4098 4.25586 11.8816 
157 29 4 -17.1443 9.19729 12.3263 
128 67 2 -32.7653 18.4811 15.581 
129 15 3 -35.3887 18.3981 16.1687 
66 15 3 -20.9616 11.0674 10.8534 
130 29 4 -29.9733 18.0151 16.6921 
65 67 2 -19.2047 11.3133 12.8751 
67 29 4 -17.1077 13.1354 14.112 
21 86.8 1 -21.1885 -35.1457 26.4985 
160 29 4 30.9204 -37.9912 28.7973 
8 86.8 1 -17.9652 -21.7039 22.7922 
62 67 2 -1.18749 -27.4951 29.6473 
63 15 3 -3.64463 -27.1462 28.6103 
134 67 2 9.77863 -26.6274 26.0619 
136 29 4 9.64481 -28.9427 24.0951 
135 15 3 11.0162 -25.7057 28.265 
110 67 2 35.6574 -27.8252 24.9217 
111 15 3 33.7768 -28.1313 23.0231 
112 29 4 36.5453 -26.0906 27.2561 
12 86.8 1 8.19587 -12.022 26.709 
42 15 3 -37.703 -3.17059 29.031 
152 67 2 19.1917 -0.0486527 22.6633 
153 15 3 19.3608 -2.72683 22.4801 
25 86.8 1 -16.831 1.22978 28.9206 
83 67 2 10.5597 9.819 24.814 
85 29 4 10.8643 6.9113 23.9775 
154 29 4 20.5515 2.56527 21.9111 
40 86.8 1 -33.0376 16.9085 21.8025 
84 15 3 11.8496 11.9336 25.8624 
24 86.8 1 25.9009 35.8006 20.0383 
158 67 2 31.8098 39.2725 27.813 
159 15 3 33.8224 37.4885 27.8526 
19 86.8 1 -6.79422 -30.4281 34.6635 
22 86.8 1 0.331293 -31.9656 34.3006 
64 29 4 0.514636 -29.3041 31.4017 
41 67 2 -38.1057 -3.11269 31.6898 
43 29 4 -39.7866 -4.24956 33.9546 
95 67 2 -1.49194 -2.96999 30.3131 
96 15 3 -3.43845 -1.12111 30.1472 
97 29 4 -0.739257 -5.65651 31.5228 
33 86.8 1 -24.9414 9.94055 30.8116 
13 86.8 1 18.8545 7.20409 39.2077 
61 29 4 -33.8408 19.7765 39.377 
77 67 2 2.68142 23.1159 38.6138 
79 29 4 4.49549 22.5237 36.2462 
47 67 2 -14.0457 34.5657 35.9556 
48 15 3 -14.3124 35.0711 33.3272 
49 29 4 -14.9319 35.4259 38.7344 
35 86.8 1 29.1662 36.7299 38.7815 
ITEM: TIMESTEP
43
ITEM: NUMBER OF ATOMS
160
ITEM: BOX BOUNDS pp pp pp
-4.0000000000000000e+01 4.0000000000000000e+01
-4.0000000000000000e+01 4.0000000000000000e+01
-4.0000000000000000e+01 4.0000000000000000e+01
ITEM: ATOMS id mass type x y z 
98 67 2 -39.7596 -32.928 -38.5985 
99 15 3 -38.5667 -30.9355 -39.9554 
100 29 4 39.2844 -33.8169 -35.8426 
39 86.8 1 -16.156 -13.3535 -32.9216 
80 67 2 18.0732 -15.2429 -33.5509 
81 15 3 18.8207 -17.585 -32.4599 
82 29 4 15.71 -13.6872 -34.6881 
50 67 2 27.8661 -15.306 -37.4884 
51 15 3 27.0454 -13.2024 -38.9499 
132 15 3 29.9027 -13.6791 -30.3233 
52 29 4 30.2503 -16.5223 -36.0274 
15 86.8 1 -10.805 -0.25449 -37.2088 
23 86.8 1 10.6912 6.56633 -39.6724 
60 15 3 -28.7993 18.8747 -38.7402 
59 67 2 -31.0265 20.1601 -39.5284 
56 67 2 -28.4112 27.7124 -35.2517 
57 15 3 -27.6219 25.1571 -34.9659 
58 29 4 -28.698 30.0038 -37.2432 
17 86.8 1 -5.49156 23.3027 -31.7598 
78 15 3 1.80784 22.1817 -39.0173 
26 86.8 1 -11.4076 33.051 -30.9969 
4 86.8 1 -0.921554 31.4227 -38.5649 
34 86.8 1 10.3028 38.9862 -39.2581 
142 29 4 -32.2581 -39.7755 -20.6548 
9 86.8 1 29.0907 -33.235 -21.3637 
121 29 4 20.6934 -32.2686 -20.7446 
119 67 2 19.5326 -29.4959 -21.2576 
120 15 3 20.0007 -27.1166 -22.4213 
20 86.8 1 28.7512 -12.8955 -27.517 
131 67 2 27.2357 -13.6382 -29.9772 
133 29 4 24.9419 -14.7522 -28.3051 
37 86.8 1 -26.977 37.0688 -25.3265 
27 86.8 1 -5.67109 -34.0726 -17.9854 
53 67 2 9.09988 -33.8166 -10.2079 
55 29 4 6.61202 -34.2995 -11.9038 
36 86.8 1 -38.6043 -22.1061 -16.6375 
6 86.8 1 23.8607 -12.786 -14.7544 
31 86.8 1 -1.50904 -2.29971 -11.1654 
70 29 4 -4.69503 -0.792078 -18.2942 
68 67 2 -5.37645 1.58163 -16.5054 
69 15 3 -4.33653 3.64846 -15.1339 
3 86.8 1 -36.8171 14.2976 -19.4253 
104 67 2 -29.2203 14.618 -10.0621 
105 15 3 -28.3776 13.597 -12.4034 
140 67 2 -32.4113 37.8273 -18.7763 
141 15 3 -31.2409 36.6256 -16.6739 
149 67 2 -17.6277 35.2986 -14.2895 
150 15 3 -15.4878 36.9257 -14.2018 
151 29 4 -18.514 32.3867 -14.473 
115 29 4 18.4127 30.4798 -18.65 
113 67 2 20.389 32.4447 -19.8878 
114 15 3 22.8355 33.5318 -19.6291 
54 15 3 11.5849 -34.7001 -9.6801 
145 29 4 -0.0309912 -28.3191 -2.08098 
143 67 2 0.716605 -25.3799 -1.76306 
144 15 3 2.43706 -23.4693 -2.55285 
122 67 2 38.6274 -22.7128 -5.47608 
123 15 3 39.6531 -21.842 -7.80504 
124 29 4 37.3531 -25.1028 -4.0752 
125 67 2 -36.8285 -17.9686 -4.79044 
126 15 3 -35.1404 -16.0256 -5.57091 
127 29 4 -38.5462 -18.9706 -2.47872 
44 67 2 2.49991 -12.1815 -3.58265 
45 15 3 5.01655 -12.1979 -4.52936 
46 29 4 0.432695 -13.8003 -2.03364 
91 29 4 1.94605 -11.3519 -4.0955 
71 67 2 16.1522 -11.081 -4.00957 
72 15 3 18.8367 -11.231 -3.93596 
73 29 4 13.5744 -12.6313 -3.50964 
90 15 3 -1.26729 -7.55417 -6.35031 
89 67 2 0.835635 -9.17393 -5.9175 
116 67 2 -30.0058 8.29406 -4.63262 
118 29 4 -30.3449 5.44355 -5.66131 
18 86.8 1 -27.155 9.41961 -9.98674 
117 15 3 -29.539 9.78051 -2.44017 
7 86.8 1 22.1578 5.48786 -5.50354 
106 29 4 -30.6627 13.9652 -7.45601 
148 29 4 3.90391 11.1395 -1.50861 
108 15 3 -29.126 22.6301 -0.532299 
2 86.8 1 7.29414 32.6479 -7.57523 
14 86.8 1 4.3055 -37.4315 9.39068 
32 86.8 1 22.9409 -32.6239 9.22324 
38 86.8 1 16.9722 -28.6115 7.05801 
1 86.8 1 -39.2131 -19.1437 0.935128 
137 67 2 -13.9533 -12.2319 3.56389 
138 15 3 -12.8659 -10.3469 5.14449 
139 29 4 -14.1231 -15.2333 3.05242 
28 86.8 1 39.221 -18.9877 2.36026 
10 86.8 1 -19.8872 -4.86895 7.63172 
16 86.8 1 -8.07338 -8.75824 0.604206 
29 86.8 1 -3.90745 7.05442 3.26793 
109 29 4 -33.1576 19.9117 1.95586 
146 67 2 1.9426 10.9901 0.82152 
147 15 3 1.481 11.8136 3.34006 
107 67 2 -31.5877 21.9315 0.296314 
74 67 2 -16.0862 -30.7988 16.398 
76 29 4 -16.4487 -33.6422 17.4383 
101 67 2 -6.89248 -31.2148 15.8827 
103 29 4 -6.23033 -34.1761 16.1842 
75 15 3 -14.4367 -28.6743 16.3862 
86 67 2 -4.41795 -25.7293 10.7208 
87 15 3 -6.19518 -23.7303 10.4381 
88 29 4 -1.77197 -26.5212 12.0131 
102 15 3 -8.11687 -29.1238 17.0502 
30 86.8 1 -35.8338 -18.1154 14.9413 
5 86.8 1 -0.514898 -13.8698 11.0873 
11 86.8 1 26.393 -12.3701 14.9609 
92 67 2 -17.7091 7.05603 12.3479 
93 15 3 -15.1792 7.69116 11.691 
94 29 4 -19.5558 4.76463 13.1444 
155 67 2 -18.292 6.44426 13.0908 
156 15 3 -19.5208 4.24459 12.1508 
157 29 4 -17.131 9.15236 12.3081 
128 67 2 -32.7681 18.4816 15.58 
129 15 3 -35.3912 18.3983 16.1685 
66 15 3 -20.963 11.0647 10.8529 
130 29 4 -29.968 18.0145 16.6935 
65 67 2 -19.2011 11.3068 12.8706 
67 29 4 -17.1034 13.1368 14.1154 
21 86.8 1 -21.1885 -35.1457 26.4985 
160 29 4 30.9181 -37.9864 28.7987 
8 86.8 1 -17.9652 -21.7039 22.7922 
62 67 2 -1.18911 -27.4938 29.6459 
63 15 3 -3.64632 -27.1452 28.6091 
134 67 2 9.77879 -26.6251 26.0639 
136 29 4 9.64403 -28.9465 24.0912 
135 15 3 11.0168 -25.7041 28.267 
110 67 2 35.6565 -27.8269 24.9194 
111 15 3 33.7755 -28.1322 23.0211 
112 29 4 36.5475 -26.0879 27.2604 
12 86.8 1 8.19587 -12.022 26.709 
42 15 3 -37.702 -3.17007 29.0287 
152 67 2 19.1904 -0.0512528 22.664 
153 15 3 19.3602 -2.72927 22.4804 
25 86.8 1 -16.831 1.22978 28.9206 
83 67 2 10.5594 9.82187 24.8148 
85 29 4 10.8641 6.9061 23.9758 
154 29 4 20.5533 2.57032 21.9101 
40 86.8 1 -33.0376 16.9086 21.8023 
84 15 3 11.85 11.936 25.8633 
24 86.8 1 25.9009 35.8006 20.0383 
158 67 2 31.8108 39.2699 27.8121 
159 15 3 33.8237 37.4864 27.8522 
19 86.8 1 -6.79418 -30.4281 34.6634 
22 86.8 1 0.331327 -31.9647 34.2996 
64 29 4 0.517882 -29.3074 31.4053 
41 67 2 -38.1041 -3.1116 31.6875 
43 29 4 -39.7892 -4.25117 33.9591 
95 67 2 -1.49273 -2.96734 30.312 
96 15 3 -3.43967 -1.119 30.1465 
97 29 4 -0.737241 -5.66126 31.5246 
33 86.8 1 -24.9414 9.94055 30.8116 
13 86.8 1 18.8545 7.20409 39.2077 
61 29 4 -33.8459 19.7765 39.3751 
77 67 2 2.67964 23.1164 38.6162 
79 29 4 4.49852 22.5233 36.2416 
47 67 2 -14.0449 34.5649 35.9528 
48 15 3 -14.3121 35.0709 33.3247 
49 29 4 -14.933 35.4269 38.7397 
35 86.8 1 29.1662 36.7299 38.7815 
ITEM: TIMESTEP
2000
ITEM: NUMBER OF ATOMS
160
ITEM: BOX BOUNDS pp pp pp
-4.0000000000000000e+01 4.0000000000000000e+01
-4.0000000000000000e+01 4.0000000000000000e+01
-4.0000000000000000e+01 4.0000000000000000e+01
ITEM: ATOMS id mass type x y z 
98 67 2 -39.7598 -32.9209 -38.5973 
99 15 3 -38.5637 -30.9149 -39.9494 
100 29 4 39.2814 -33.8076 -35.8451 
39 86.8 1 -16.1569 -13.3548 -32.917 
80 67 2 18.0691 -15.2427 -33.5552 
81 15 3 18.8174 -17.5791 -32.4654 
82 29 4 15.7122 -13.6948 -34.6881 
50 67 2 27.8721 -15.3055 -37.492 
51 15 3 27.0472 -13.1935 -38.9523 
132 15 3 29.8962 -13.6806 -30.3304 
52 29 4 30.2538 -16.5209 -36.0303 
15 86.8 1 -10.81 -0.250578 -37.2082 
23 86.8 1 10.6878 6.56433 -39.6689 
60 15 3 -28.8057 18.8695 -38.7347 
59 67 2 -31.0275 20.1615 -39.5241 
56 67 2 -28.4118 27.7184 -35.2546 
57 15 3 -27.614 25.1503 -34.9717 
17 86.8 1 -5.49025 23.3051 -31.7637 
78 15 3 1.78936 22.1744 -39.0111 
58 29 4 -28.7008 30.0081 -37.2415 
26 86.8 1 -11.4072 33.0527 -30.9972 
4 86.8 1 -0.931241 31.419 -38.5603 
34 86.8 1 10.3005 38.991 -39.2565 
142 29 4 -32.2515 -39.7714 -20.6561 
9 86.8 1 29.0935 -33.2317 -21.365 
121 29 4 20.6879 -32.2739 -20.7494 
119 67 2 19.538 -29.4926 -21.2556 
120 15 3 20.0193 -27.1214 -22.4108 
20 86.8 1 28.7519 -12.8973 -27.5209 
131 67 2 27.237 -13.6353 -29.9747 
133 29 4 24.9405 -14.7523 -28.2992 
37 86.8 1 -26.9758 37.0663 -25.3268 
27 86.8 1 -5.66895 -34.0705 -17.9863 
53 67 2 9.09642 -33.8239 -10.2049 
55 29 4 6.6047 -34.2988 -11.9042 
36 86.8 1 -38.6078 -22.1049 -16.6339 
6 86.8 1 23.8596 -12.784 -14.7569 
31 86.8 1 -1.5109 -2.29952 -11.1717 
70 29 4 -4.69651 -0.784577 -18.2983 
68 67 2 -5.37515 1.58075 -16.5062 
69 15 3 -4.3338 3.6486 -15.1371 
3 86.8 1 -36.8164 14.2973 -19.4292 
104 67 2 -29.2196 14.6217 -10.0617 
105 15 3 -28.3785 13.5851 -12.4042 
140 67 2 -32.4175 37.8249 -18.776 
141 15 3 -31.2537 36.6143 -16.6877 
149 67 2 -17.6235 35.3006 -14.2849 
150 15 3 -15.4823 36.9104 -14.1991 
151 29 4 -18.5128 32.3882 -14.4672 
115 29 4 18.4147 30.4749 -18.6473 
113 67 2 20.3885 32.4435 -19.8887 
114 15 3 22.8298 33.524 -19.653 
54 15 3 11.5907 -34.7025 -9.68566 
145 29 4 -0.0256245 -28.3128 -2.08779 
143 67 2 0.713688 -25.3757 -1.76335 
144 15 3 2.43078 -23.4676 -2.55508 
122 67 2 38.6241 -22.7095 -5.46672 
123 15 3 39.6461 -21.8411 -7.80784 
124 29 4 37.3586 -25.105 -4.06914 
125 67 2 -36.8254 -17.9634 -4.79196 
126 15 3 -35.1375 -16.0223 -5.58041 
127 29 4 -38.5338 -18.9727 -2.47706 
44 67 2 2.49948 -12.1827 -3.57602 
45 15 3 5.02005 -12.1976 -4.52989 
46 29 4 0.434376 -13.8146 -2.03289 
91 29 4 1.95529 -11.36 -4.09848 
71 67 2 16.1512 -11.0809 -4.00902 
72 15 3 18.8434 -11.2207 -3.92326 
73 29 4 13.572 -12.6364 -3.51011 
90 15 3 -1.26318 -7.56141 -6.34769 
89 67 2 0.841908 -9.17702 -5.90981 
116 67 2 -30.0032 8.28896 -4.63379 
118 29 4 -30.3411 5.43914 -5.65742 
18 86.8 1 -27.1542 9.42221 -9.98843 
117 15 3 -29.5365 9.76975 -2.4507 
7 86.8 1 22.16 5.48859 -5.50484 
106 29 4 -30.6644 13.9637 -7.46972 
148 29 4 3.9116 11.1456 -1.50803 
108 15 3 -29.1269 22.6257 -0.54569 
2 86.8 1 7.29048 32.6477 -7.57832 
14 86.8 1 4.30335 -37.4379 9.39462 
32 86.8 1 22.9396 -32.6239 9.22561 
38 86.8 1 16.9717 -28.6102 7.05381 
1 86.8 1 -39.211 -19.1422 0.94223 
137 67 2 -13.9583 -12.2323 3.56099 
138 15 3 -12.8627 -10.3437 5.13457 
139 29 4 -14.1292 -15.2291 3.05176 
28 86.8 1 39.224 -18.9898 2.35982 
10 86.8 1 -19.8936 -4.87176 7.63645 
16 86.8 1 -8.07569 -8.75787 0.604591 
29 86.8 1 -3.9042 7.05396 3.26428 
109 29 4 -33.1604 19.9154 1.95636 
146 67 2 1.94101 10.986 0.824445 
147 15 3 1.46587 11.8097 3.32955 
107 67 2 -31.5842 21.932 0.291474 
74 67 2 -16.0804 -30.7997 16.395 
76 29 4 -16.4496 -33.6406 17.4297 
101 67 2 -6.88958 -31.2129 15.8759 
103 29 4 -6.22946 -34.1773 16.1878 
75 15 3 -14.4294 -28.6643 16.3751 
86 67 2 -4.42013 -25.7288 10.7252 
87 15 3 -6.18055 -23.7196 10.4346 
88 29 4 -1.78206 -26.5264 12.0193 
102 15 3 -8.10838 -29.1254 17.0668 
30 86.8 1 -35.8319 -18.118 14.9458 
5 86.8 1 -0.513813 -13.8682 11.0891 
11 86.8 1 26.3935 -12.369 14.9619 
92 67 2 -17.7088 7.04474 12.3462 
93 15 3 -15.1823 7.68339 11.6968 
94 29 4 -19.5503 4.75923 13.1298 
155 67 2 -18.2911 6.44996 13.0836 
156 15 3 -19.5154 4.25364 12.1485 
157 29 4 -17.1302 9.15523 12.2954 
128 67 2 -32.7687 18.4801 15.578 
129 15 3 -35.397 18.4066 16.1643 
66 15 3 -20.959 11.0741 10.8518 
130 29 4 -29.9748 18.0079 16.6852 
65 67 2 -19.1947 11.3089 12.8685 
67 29 4 -17.0919 13.1326 14.1102 
21 86.8 1 -21.1827 -35.1435 26.5014 
160 29 4 30.918 -37.9938 28.8075 
8 86.8 1 -17.9709 -21.7042 22.7929 
62 67 2 -1.19185 -27.5003 29.6449 
63 15 3 -3.64841 -27.1446 28.6055 
134 67 2 9.77572 -26.6275 26.0684 
136 29 4 9.64049 -28.9442 24.0927 
135 15 3 11.0233 -25.6927 28.2549 
110 67 2 35.6512 -27.8297 24.917 
111 15 3 33.7739 -28.1209 23.0166 
112 29 4 36.5465 -26.0883 27.2597 
12 86.8 1 8.19542 -12.0213 26.7087 
42 15 3 -37.6927 -3.16239 29.0375 
152 67 2 19.1908 -0.0502036 22.6599 
153 15 3 19.3592 -2.72666 22.4851 
25 86.8 1 -16.8246 1.23192 28.9236 
83 67 2 10.5574 9.81363 24.8159 
85 29 4 10.863 6.90313 23.9813 
154 29 4 20.5428 2.57632 21.9117 
40 86.8 1 -33.0363 16.9135 21.8038 
84 15 3 11.8511 11.9267 25.8723 
24 86.8 1 25.9 35.8028 20.0379 
158 67 2 31.8114 39.2669 27.8126 
159 15 3 33.8079 37.4804 27.8557 
19 86.8 1 -6.79526 -30.4277 34.6651 
22 86.8 1 0.333253 -31.9672 34.3048 
64 29 4 0.521138 -29.3037 31.4012 
41 67 2 -38.104 -3.10812 31.6885 
43 29 4 -39.7904 -4.24624 33.9606 
95 67 2 -1.49336 -2.97336 30.3142 
96 15 3 -3.43259 -1.11673 30.159 
97 29 4 -0.734751 -5.66346 31.522 
33 86.8 1 -24.9423 9.94086 30.8112 
13 86.8 1 18.856 7.20627 39.2143 
61 29 4 -33.8496 19.774 39.361 
77 67 2 2.67515 23.1229 38.6169 
79 29 4 4.49637 22.5265 36.2324 
47 67 2 -14.0401 34.5554 35.9532 
48 15 3 -14.3097 35.0726 33.3279 
49 29 4 -14.9345 35.4202 38.7309 
35 86.8 1 29.1671 36.7317 38.7832 
ITEM: TIMESTEP
4000
ITEM: NUMBER OF ATOMS
160
ITEM: BOX BOUNDS pp pp pp
-4.0000000000000000e+01 4.0000000000000000e+01
-4.0000000000000000e+01 4.0000000000000000e+01
-4.0000000000000000e+01 4.0000000000000000e+01
ITEM: ATOMS id mass type x y z 
98 67 2 -39.7587 -32.9116 -38.5971 
99 15 3 -38.5644 -30.901 -39.9404 
100 29 4 39.2775 -33.7991 -35.8466 
39 86.8 1 -16.1578 -13.3562 -32.9123 
80 67 2 18.0664 -15.2427 -33.5592 
81 15 3 18.8156 -17.5776 -32.4689 
82 29 4 15.7102 -13.6998 -34.6902 
50 67 2 27.8775 -15.3036 -37.4968 
51 15 3 27.0514 -13.1896 -38.9511 
132 15 3 29.8956 -13.6827 -30.3382 
52 29 4 30.2581 -16.5198 -36.0328 
15 86.8 1 -10.815 -0.246581 -37.2076 
23 86.8 1 10.6844 6.56229 -39.6652 
60 15 3 -28.8109 18.8652 -38.7284 
59 67 2 -31.0308 20.1621 -39.5207 
56 67 2 -28.4113 27.7211 -35.2568 
57 15 3 -27.6099 25.1562 -34.9788 
17 86.8 1 -5.48891 23.3076 -31.7677 
78 15 3 1.77475 22.1719 -39.0167 
58 29 4 -28.7038 30.0142 -37.2409 
26 86.8 1 -11.4069 33.0543 -30.9975 
4 86.8 1 -0.941142 31.4151 -38.5557 
34 86.8 1 10.2982 38.9958 -39.2548 
142 29 4 -32.2449 -39.7699 -20.6553 
9 86.8 1 29.0964 -33.2283 -21.3663 
121 29 4 20.6815 -32.2782 -20.7544 
119 67 2 19.5436 -29.4913 -21.2528 
120 15 3 20.0391 -27.1188 -22.4035 
20 86.8 1 28.7526 -12.899 -27.5248 
131 67 2 27.236 -13.6326 -29.9714 
133 29 4 24.9411 -14.7515 -28.2945 
37 86.8 1 -26.9744 37.0637 -25.327 
27 86.8 1 -5.66676 -34.0683 -17.9871 
53 67 2 9.09317 -33.8316 -10.2019 
55 29 4 6.599 -34.2979 -11.9036 
36 86.8 1 -38.6113 -22.1037 -16.6302 
6 86.8 1 23.8585 -12.7818 -14.7595 
31 86.8 1 -1.51279 -2.29933 -11.1781 
70 29 4 -4.69752 -0.778971 -18.3041 
68 67 2 -5.37402 1.58072 -16.5063 
69 15 3 -4.33113 3.64885 -15.1403 
3 86.8 1 -36.8156 14.297 -19.4331 
104 67 2 -29.2177 14.6243 -10.0643 
105 15 3 -28.38 13.5781 -12.4007 
140 67 2 -32.4246 37.8246 -18.7783 
141 15 3 -31.2626 36.5986 -16.6945 
149 67 2 -17.6205 35.3007 -14.2804 
150 15 3 -15.4705 36.9015 -14.1961 
151 29 4 -18.5122 32.3905 -14.4611 
115 29 4 18.4179 30.4704 -18.6444 
113 67 2 20.3855 32.4414 -19.8901 
114 15 3 22.8326 33.5187 -19.6753 
54 15 3 11.5919 -34.7037 -9.69274 
145 29 4 -0.021066 -28.308 -2.09447 
143 67 2 0.710784 -25.3714 -1.76374 
144 15 3 2.4258 -23.4624 -2.55746 
122 67 2 38.6214 -22.7061 -5.45927 
123 15 3 39.6363 -21.841 -7.80307 
124 29 4 37.3641 -25.1071 -4.06201 
125 67 2 -36.8221 -17.9582 -4.79401 
126 15 3 -35.1351 -16.0189 -5.58879 
127 29 4 -38.521 -18.9745 -2.4749 
44 67 2 2.50013 -12.1848 -3.56921 
45 15 3 5.0187 -12.1961 -4.52908 
46 29 4 0.436372 -13.8283 -2.03265 
91 29 4 1.96436 -11.3686 -4.10076 
71 67 2 16.1509 -11.0812 -4.00834 
72 15 3 18.843 -11.2103 -3.91034 
73 29 4 13.5713 -12.6408 -3.51085 
90 15 3 -1.25985 -7.56921 -6.34393 
89 67 2 0.848579 -9.17977 -5.90263 
116 67 2 -30.0008 8.28287 -4.63651 
118 29 4 -30.3374 5.43347 -5.65412 
18 86.8 1 -27.1533 9.42486 -9.99016 
117 15 3 -29.5321 9.76497 -2.45329 
7 86.8 1 22.1623 5.48934 -5.50617 
106 29 4 -30.6683 13.9625 -7.47904 
148 29 4 3.91682 11.1517 -1.50416 
108 15 3 -29.1251 22.621 -0.55964 
2 86.8 1 7.28674 32.6476 -7.58148 
14 86.8 1 4.30116 -37.4444 9.39864 
32 86.8 1 22.9383 -32.6238 9.22804 
38 86.8 1 16.9712 -28.6089 7.04953 
1 86.8 1 -39.2088 -19.1407 0.949523 
137 67 2 -13.9632 -12.2313 3.55832 
138 15 3 -12.86 -10.3416 5.12375 
139 29 4 -14.1355 -15.2272 3.05078 
28 86.8 1 39.227 -18.9919 2.35933 
10 86.8 1 -19.9002 -4.87464 7.64127 
16 86.8 1 -8.07806 -8.7575 0.604985 
29 86.8 1 -3.90089 7.05349 3.26055 
109 29 4 -33.1617 19.9203 1.95585 
146 67 2 1.94084 10.9812 0.824003 
147 15 3 1.44897 11.8089 3.32778 
107 67 2 -31.5819 21.9321 0.287032 
74 67 2 -16.0739 -30.7981 16.3913 
76 29 4 -16.4499 -33.6405 17.4219 
101 67 2 -6.8875 -31.2114 15.8709 
103 29 4 -6.22814 -34.1766 16.1898 
75 15 3 -14.4259 -28.6624 16.3653 
86 67 2 -4.42273 -25.7283 10.7295 
87 15 3 -6.16784 -23.7073 10.4301 
88 29 4 -1.79034 -26.5329 12.0265 
102 15 3 -8.09655 -29.1283 17.0787 
30 86.8 1 -35.83 -18.1206 14.9504 
5 86.8 1 -0.512704 -13.8667 11.091 
11 86.8 1 26.394 -12.3679 14.9628 
92 67 2 -17.7077 7.03529 12.3438 
93 15 3 -15.1816 7.67613 11.7019 
94 29 4 -19.5481 4.75001 13.1178 
155 67 2 -18.29 6.45639 13.0769 
156 15 3 -19.5127 4.25598 12.1415 
157 29 4 -17.129 9.15889 12.2822 
128 67 2 -32.7716 18.4791 15.5752 
129 15 3 -35.3989 18.4148 16.1601 
66 15 3 -20.9549 11.0833 10.8509 
130 29 4 -29.9786 18.0006 16.6785 
65 67 2 -19.1883 11.311 12.8661 
67 29 4 -17.0795 13.1287 14.1052 
21 86.8 1 -21.1768 -35.1412 26.5044 
160 29 4 30.9181 -38.0007 28.8168 
8 86.8 1 -17.9767 -21.7045 22.7936 
62 67 2 -1.19488 -27.5057 29.6429 
63 15 3 -3.65026 -27.1463 28.6035 
134 67 2 9.77178 -26.6296 26.0723 
136 29 4 9.63731 -28.9428 24.0941 
135 15 3 11.0326 -25.6806 28.246 
110 67 2 35.6462 -27.8318 24.9156 
111 15 3 33.771 -28.1104 23.0098 
112 29 4 36.5452 -26.0901 27.2576 
12 86.8 1 8.19497 -12.0206 26.7083 
42 15 3 -37.6834 -3.15568 29.0402 
152 67 2 19.1902 -0.0488191 22.6563 
153 15 3 19.3605 -2.72598 22.4886 
25 86.8 1 -16.8181 1.23411 28.9266 
83 67 2 10.5559 9.80702 24.8177 
85 29 4 10.8618 6.89708 23.9861 
154 29 4 20.5334 2.58277 21.9125 
40 86.8 1 -33.035 16.9185 21.8053 
84 15 3 11.8498 11.915 25.8802 
24 86.8 1 25.8991 35.805 20.0375 
158 67 2 31.8103 39.2649 27.8128 
159 15 3 33.7995 37.4683 27.8599 
19 86.8 1 -6.79636 -30.4273 34.6669 
22 86.8 1 0.335222 -31.9697 34.3101 
64 29 4 0.524862 -29.3021 31.3985 
41 67 2 -38.1038 -3.10417 31.6912 
43 29 4 -39.7918 -4.2415 33.9614 
95 67 2 -1.49384 -2.97858 30.3158 
96 15 3 -3.42637 -1.11458 30.1723 
97 29 4 -0.732054 -5.66776 31.5204 
33 86.8 1 -24.9432 9.94117 30.8109 
13 86.8 1 18.8577 7.20848 39.221 
61 29 4 -33.8489 19.7728 39.3484 
77 67 2 2.67095 23.1279 38.6186 
79 29 4 4.49104 22.5308 36.2269 
47 67 2 -14.0356 34.5461 35.9524 
48 15 3 -14.3057 35.0724 33.3301 
49 29 4 -14.9361 35.4134 38.7251 
35 86.8 1 29.1681 36.7335 38.7849 
ITEM: TIMESTEP
6000
ITEM: NUMBER OF ATOMS
160
ITEM: BOX BOUNDS pp pp pp
-4.0000000000000000e+01 4.0000000000000000e+01
-4.0000000000000000e+01 4.0000000000000000e+01
-4.0000000000000000e+01 4.0000000000000000e+01
ITEM: ATOMS id mass type x y z 
98 67 2 -39.7566 -32.9002 -38.5976 
99 15 3 -38.5683 -30.8935 -39.9302 
100 29 4 39.2729 -33.7921 -35.8473 
39 86.8 1 -16.1587 -13.3575 -32.9077 
80 67 2 18.0657 -15.2432 -33.5625 
81 15 3 18.8158 -17.5813 -32.4699 
82 29 4 15.7026 -13.7009 -34.6951 
50 67 2 27.882 -15.3008 -37.5023 
51 15 3 27.0575 -13.19 -38.9468 
132 15 3 29.8992 -13.6854 -30.3458 
52 29 4 30.263 -16.5188 -36.0351 
15 86.8 1 -10.82 -0.242584 -37.2071 
23 86.8 1 10.681 6.56025 -39.6616 
60 15 3 -28.8156 18.8633 -38.7217 
59 67 2 -31.0366 20.1613 -39.5184 
56 67 2 -28.4099 27.7208 -35.2585 
57 15 3 -27.6093 25.1727 -34.9865 
17 86.8 1 -5.48757 23.31 -31.7716 
78 15 3 1.76454 22.1742 -39.034 
58 29 4 -28.707 30.0214 -37.241 
26 86.8 1 -11.4065 33.056 -30.9978 
4 86.8 1 -0.951042 31.4113 -38.551 
34 86.8 1 10.2959 39.0007 -39.2532 
142 29 4 -32.2384 -39.7713 -20.6522 
9 86.8 1 29.0992 -33.2249 -21.3676 
121 29 4 20.6742 -32.2818 -20.7592 
119 67 2 19.5496 -29.4917 -21.2495 
120 15 3 20.0588 -27.1101 -22.3985 
20 86.8 1 28.7533 -12.9008 -27.5287 
131 67 2 27.2331 -13.63 -29.9676 
133 29 4 24.9439 -14.75 -28.2911 
37 86.8 1 -26.9731 37.0612 -25.3273 
27 86.8 1 -5.66458 -34.0661 -17.988 
53 67 2 9.08984 -33.8396 -10.1991 
55 29 4 6.59607 -34.297 -11.9015 
36 86.8 1 -38.6149 -22.1025 -16.6265 
6 86.8 1 23.8573 -12.7797 -14.7621 
31 86.8 1 -1.51468 -2.29914 -11.1845 
70 29 4 -4.69793 -0.77606 -18.312 
68 67 2 -5.37314 1.58169 -16.5057 
69 15 3 -4.32848 3.64984 -15.143 
3 86.8 1 -36.8149 14.2967 -19.4371 
104 67 2 -29.2151 14.6249 -10.0699 
105 15 3 -28.3804 13.5775 -12.3958 
140 67 2 -32.4324 37.8261 -18.7827 
141 15 3 -31.2684 36.5799 -16.696 
149 67 2 -17.6177 35.2992 -14.2759 
150 15 3 -15.4545 36.8998 -14.1926 
151 29 4 -18.5131 32.3931 -14.4551 
115 29 4 18.4225 30.4662 -18.6409 
113 67 2 20.3804 32.4389 -19.8924 
114 15 3 22.8422 33.5147 -19.6947 
54 15 3 11.5882 -34.7041 -9.70166 
145 29 4 -0.0180465 -28.3056 -2.10065 
143 67 2 0.708324 -25.3672 -1.76447 
144 15 3 2.42181 -23.453 -2.55931 
122 67 2 38.6191 -22.7032 -5.45392 
123 15 3 39.6246 -21.8402 -7.79129 
124 29 4 37.3694 -25.1085 -4.05365 
125 67 2 -36.8188 -17.9534 -4.79682 
126 15 3 -35.1332 -16.015 -5.59496 
127 29 4 -38.5079 -18.9755 -2.47213 
44 67 2 2.50175 -12.1882 -3.56207 
45 15 3 5.01212 -12.1932 -4.52691 
46 29 4 0.439251 -13.8404 -2.03346 
91 29 4 1.97264 -11.3776 -4.10212 
71 67 2 16.151 -11.0819 -4.00752 
72 15 3 18.8356 -11.2006 -3.89734 
73 29 4 13.5735 -12.6439 -3.51195 
90 15 3 -1.25767 -7.57781 -6.33842 
89 67 2 0.855665 -9.18193 -5.89642 
116 67 2 -29.9986 8.27641 -4.6402 
118 29 4 -30.3341 5.42548 -5.65221 
18 86.8 1 -27.1525 9.42752 -9.99188 
117 15 3 -29.5262 9.76632 -2.44889 
7 86.8 1 22.1647 5.49008 -5.5075 
106 29 4 -30.6748 13.9624 -7.48231 
148 29 4 3.91919 11.1577 -1.49661 
108 15 3 -29.1215 22.6154 -0.573094 
2 86.8 1 7.283 32.6475 -7.58464 
14 86.8 1 4.29896 -37.451 9.40266 
32 86.8 1 22.937 -32.6238 9.23047 
38 86.8 1 16.9707 -28.6076 7.04525 
1 86.8 1 -39.2068 -19.1392 0.956852 
137 67 2 -13.9682 -12.2289 3.55582 
138 15 3 -12.8572 -10.3403 5.11281 
139 29 4 -14.1419 -15.2283 3.04945 
28 86.8 1 39.2301 -18.9941 2.35881 
10 86.8 1 -19.9067 -4.87752 7.6461 
16 86.8 1 -8.08043 -8.75713 0.605378 
29 86.8 1 -3.89757 7.05302 3.25681 
109 29 4 -33.161 19.9265 1.95413 
146 67 2 1.94208 10.9759 0.820554 
147 15 3 1.43132 11.8105 3.33232 
107 67 2 -31.5808 21.9319 0.282999 
74 67 2 -16.0676 -30.7942 16.3864 
76 29 4 -16.4485 -33.6414 17.4155 
101 67 2 -6.88661 -31.2112 15.8688 
103 29 4 -6.22597 -34.1734 16.1887 
75 15 3 -14.4243 -28.6686 16.3579 
86 67 2 -4.42592 -25.7272 10.7336 
87 15 3 -6.15802 -23.6939 10.4243 
88 29 4 -1.79578 -26.5409 12.0347 
102 15 3 -8.08109 -29.1308 17.0833 
30 86.8 1 -35.8281 -18.1233 14.955 
5 86.8 1 -0.511595 -13.8651 11.0929 
11 86.8 1 26.3945 -12.3667 14.9638 
92 67 2 -17.7054 7.02868 12.3403 
93 15 3 -15.1753 7.6699 11.7057 
94 29 4 -19.5504 4.73623 13.1101 
155 67 2 -18.2891 6.46256 13.0708 
156 15 3 -19.5117 4.25247 12.1295 
157 29 4 -17.1271 9.16366 12.2692 
128 67 2 -32.7767 18.4785 15.5712 
129 15 3 -35.398 18.4226 16.1572 
66 15 3 -20.9512 11.0918 10.8502 
130 29 4 -29.9788 17.9923 16.6741 
65 67 2 -19.1822 11.3132 12.8634 
67 29 4 -17.0663 13.1252 14.101 
21 86.8 1 -21.1709 -35.139 26.5074 
160 29 4 30.9183 -38.0062 28.827 
8 86.8 1 -17.9824 -21.7048 22.7943 
62 67 2 -1.19775 -27.509 29.6397 
63 15 3 -3.65284 -27.1515 28.6035 
134 67 2 9.76688 -26.6309 26.0757 
136 29 4 9.63485 -28.9429 24.095 
135 15 3 11.0449 -25.6692 28.2399 
110 67 2 35.6412 -27.8326 24.9154 
111 15 3 33.7679 -28.1016 23.0014 
112 29 4 36.5439 -26.0938 27.2537 
12 86.8 1 8.19452 -12.0199 26.7079 
42 15 3 -37.6752 -3.15079 29.0378 
152 67 2 19.1878 -0.0471829 22.6537 
153 15 3 19.3654 -2.72679 22.4898 
25 86.8 1 -16.8116 1.2363 28.9297 
83 67 2 10.5551 9.80218 24.8202 
85 29 4 10.8603 6.88733 23.9895 
154 29 4 20.5259 2.5894 21.9122 
40 86.8 1 -33.0337 16.9235 21.8067 
84 15 3 11.8464 11.9026 25.8871 
24 86.8 1 25.8981 35.8073 20.0371 
158 67 2 31.8076 39.2635 27.8124 
159 15 3 33.7983 37.4513 27.8652 
19 86.8 1 -6.79746 -30.4268 34.6686 
22 86.8 1 0.33719 -31.9723 34.3154 
64 29 4 0.528598 -29.3031 31.3976 
41 67 2 -38.1031 -3.09951 31.6953 
43 29 4 -39.7938 -4.23749 33.9616 
95 67 2 -1.49396 -2.98258 30.3165 
96 15 3 -3.42182 -1.11272 30.1865 
97 29 4 -0.729308 -5.67473 31.5204 
33 86.8 1 -24.944 9.94149 30.8106 
13 86.8 1 18.8593 7.2107 39.2277 
61 29 4 -33.8426 19.7735 39.3382 
77 67 2 2.66778 23.1311 38.6202 
79 29 4 4.48105 22.5367 36.2275 
47 67 2 -14.0317 34.5377 35.9502 
48 15 3 -14.2988 35.0691 33.3296 
49 29 4 -14.9376 35.4061 38.7239 
35 86.8 1 29.169 36.7354 38.7866 
ITEM: TIMESTEP
8000
ITEM: NUMBER OF ATOMS
160
ITEM: BOX BOUNDS pp pp pp
-4.0000000000000000e+01 4.0000000000000000e+01
-4.0000000000000000e+01 4.0000000000000000e+01
-4.0000000000000000e+01 4.0000000000000000e+01
ITEM: ATOMS id mass type x y z 
98 67 2 -39.7546 -32.8887 -38.5968 
99 15 3 -38.5709 -30.8848 -39.9242 
100 29 4 39.2679 -33.7861 -35.8487 
39 86.8 1 -16.1596 -13.3588 -32.903 
80 67 2 18.0661 -15.2445 -33.5653 
81 15 3 18.8175 -17.5866 -32.47 
82 29 4 15.6917 -13.6993 -34.7017 
50 67 2 27.8868 -15.2986 -37.5074 
51 15 3 27.0634 -13.1884 -38.9437 