ITEM: TIMESTEP
0
ITEM: NUMBER OF ATOMS
80
ITEM: BOX BOUNDS pp pp pp
-4.0000000000000000e+01 4.0000000000000000e+01
-4.0000000000000000e+01 4.0000000000000000e+01
-4.0000000000000000e+01 4.0000000000000000e+01
ITEM: ATOMS id mass type x y z 
78 67.07 2 -39.741 -32.0692 -37.5014 
80 29.07 4 -37.306 -33.8153 -37.9184 
79 15.04 3 38.0051 -31.7959 -38.9766 
60 67.07 2 16.7703 -15.7323 -33.4845 
61 15.04 3 17.4781 -14.3988 -31.2369 
62 29.07 4 18.3555 -16.3841 -35.9775 
30 67.07 2 29.0615 -14.6091 -37.3243 
31 15.04 3 27.2645 -14.0297 -35.3836 
32 29.07 4 28.8358 -16.392 -39.7579 
15 86.81 1 -10.805 -0.25449 -37.2088 
39 67.07 2 -31.6015 18.897 -39.6532 
40 15.04 3 -31.9422 19.9361 -37.1762 
37 15.04 3 -30.7137 26.887 -35.9142 
36 67.07 2 -28.1799 27.5357 -36.6143 
38 29.07 4 -25.8377 28.4507 -34.9323 
17 86.81 1 -5.49156 23.3027 -31.7598 
4 86.81 1 -0.921555 31.4227 -38.5649 
9 86.81 1 29.0907 -33.235 -21.3637 
20 86.81 1 28.7539 -12.8915 -27.5041 
33 67.07 2 8.97291 -34.9386 -11.0243 
35 29.07 4 10.1252 -32.4441 -12.2901 
6 86.81 1 23.8607 -12.786 -14.7544 
48 67.07 2 -4.05902 1.19928 -16.7496 
49 15.04 3 -5.03505 0.109569 -14.4713 
50 29.07 4 -5.31394 3.12919 -18.7126 
3 86.81 1 -36.8171 14.2976 -19.4253 
34 15.04 3 8.19868 -35.4335 -8.47742 
70 15.04 3 -0.357788 -10.759 -7.51019 
24 67.07 2 2.80758 -13.6604 -3.15635 
25 15.04 3 4.00303 -12.4953 -1.02455 
26 29.07 4 1.48364 -12.4431 -5.58903 
51 67.07 2 16.1567 -12.3474 -3.4284 
52 15.04 3 16.1633 -10.3718 -1.57682 
53 29.07 4 16.2434 -12.2241 -6.44994 
69 67.07 2 -0.0577356 -9.63931 -5.06326 
71 29.07 4 1.58482 -7.26263 -4.16557 
18 86.81 1 -27.1548 9.41929 -9.98672 
7 86.81 1 22.1578 5.48786 -5.50354 
2 86.81 1 7.29414 32.6479 -7.57523 
14 86.81 1 4.3055 -37.4315 9.39068 
68 29.07 4 -2.98942 -24.624 8.71872 
1 86.81 1 -39.161 -19.1491 0.890539 
10 86.81 1 -19.8872 -4.86895 7.63172 
16 86.81 1 -8.07335 -8.75822 0.604183 
74 29.07 4 -17.9709 5.76644 9.96526 
54 67.07 2 -15.2027 -31.3645 17.3149 
56 29.07 4 -14.6241 -31.834 14.3828 
55 15.04 3 -17.1449 -29.9169 18.5247 
66 67.07 2 -3.76591 -24.8986 11.6298 
67 15.04 3 -5.62975 -26.4581 12.8235 
5 86.81 1 -0.514897 -13.8698 11.0873 
11 86.81 1 26.393 -12.3701 14.9609 
72 67.07 2 -17.2521 5.83115 12.9032 
73 15.04 3 -17.3397 7.85368 14.7012 
46 15.04 3 -20.9915 12.4929 14.2305 
45 67.07 2 -18.9916 12.6072 12.4088 
47 29.07 4 -17.291 10.4159 11.2012 
8 86.81 1 -17.9652 -21.7039 22.7922 
43 15.04 3 -0.587076 -28.9205 27.6401 
12 86.81 1 8.19587 -12.022 26.709 
76 15.04 3 -2.5268 -4.17763 28.3404 
64 15.04 3 9.98619 9.05641 27.1615 
63 67.07 2 11.7193 9.09728 25.0816 
65 29.07 4 11.5681 10.5102 22.4108 
19 86.81 1 -6.79422 -30.4281 34.6635 
42 67.07 2 -1.66109 -28.7166 30.1172 
44 29.07 4 -2.06932 -26.3083 31.902 
21 67.07 2 -39.0132 -4.14712 31.4807 
22 15.04 3 -36.5055 -5.06227 31.9337 
75 67.07 2 -2.41494 -3.74378 31.0106 
77 29.07 4 -0.727913 -1.82619 32.6321 
23 29.07 4 39.9234 -1.32344 31.2609 
13 86.81 1 18.8545 7.20409 39.2077 
41 29.07 4 -30.1281 19.9782 37.9358 
57 67.07 2 3.32783 21.8912 38.4745 
58 15.04 3 0.814432 21.8414 37.4687 
59 29.07 4 4.84375 24.0889 39.8974 
27 67.07 2 -15.0446 35.5163 36.1445 
28 15.04 3 -16.0524 33.0241 35.8213 
29 29.07 4 -12.193 36.5222 36.0515 
ITEM: TIMESTEP
251
ITEM: NUMBER OF ATOMS
80
ITEM: BOX BOUNDS pp pp pp
-4.0000000000000000e+01 4.0000000000000000e+01
-4.0000000000000000e+01 4.0000000000000000e+01
-4.0000000000000000e+01 4.0000000000000000e+01
ITEM: ATOMS id mass type x y z 
78 67.07 2 39.917 -32.0867 -37.2837 
80 29.07 4 -37.404 -33.5344 -37.4432 
79 15.04 3 37.6389 -31.5615 -38.6138 
60 67.07 2 17.1462 -15.5097 -32.8959 
61 15.04 3 17.8225 -14.2108 -30.6398 
62 29.07 4 18.1207 -16.3205 -35.6692 
30 67.07 2 28.8372 -14.5473 -36.1738 
31 15.04 3 27.0988 -12.7336 -35.2127 
32 29.07 4 29.6754 -16.0907 -38.6664 
15 86.81 1 -10.201 -0.283045 -38.421 
39 67.07 2 -31.878 17.981 -39.4189 
40 15.04 3 -32.4776 18.6896 -36.8944 
37 15.04 3 -30.6725 27.4968 -35.0943 
36 67.07 2 -28.1157 28.2665 -35.4181 
38 29.07 4 -25.441 28.6208 -33.9972 
17 86.81 1 -6.16795 22.4461 -33.0651 
4 86.81 1 0.412853 28.5093 38.9247 
9 86.81 1 29.2038 -33.4279 -22.8809 
20 86.81 1 27.7483 -14.6126 -32.0266 
33 67.07 2 9.32417 -35.8359 -10.6509 
35 29.07 4 10.296 -33.3975 -12.2028 
6 86.81 1 20.408 -13.0338 -12.6975 
48 67.07 2 -4.51654 1.67095 -16.937 
49 15.04 3 -5.22434 0.398982 -14.6752 
50 29.07 4 -5.49977 3.54822 -19.1296 
3 86.81 1 -36.6294 15.5089 -21.9544 
34 15.04 3 8.21948 -36.6513 -8.33806 
70 15.04 3 -2.82844 -9.26026 -6.71367 
24 67.07 2 2.2274 -14.2817 -1.57313 
25 15.04 3 3.59566 -12.9878 0.347236 
26 29.07 4 2.12319 -14.8754 -4.56202 
51 67.07 2 18.1447 -11.7962 -4.13859 
52 15.04 3 17.1869 -10.4455 -2.01886 
53 29.07 4 17.9504 -12.108 -7.16573 
69 67.07 2 -1.28415 -7.30401 -5.70225 
71 29.07 4 -0.37029 -5.96064 -3.122 
18 86.81 1 -25.3657 9.50071 -8.989 
7 86.81 1 20.7066 4.99618 -5.03065 
2 86.81 1 7.13159 34.9521 -8.14907 
14 86.81 1 2.81855 -36.0805 9.93287 
68 29.07 4 -2.17687 -23.5521 8.74513 
1 86.81 1 -38.6277 -19.7108 1.20666 
10 86.81 1 -18.7573 -0.582753 10.6692 
16 86.81 1 -2.38486 -10.3714 -2.92559 
74 29.07 4 -17.985 3.6411 8.98001 
54 67.07 2 -15.7606 -29.7122 17.7324 
56 29.07 4 -15.0981 -31.1984 15.155 
55 15.04 3 -17.7603 -28.6637 19.1933 
66 67.07 2 -3.2799 -24.17 11.52 
67 15.04 3 -4.91503 -25.7957 12.9049 
5 86.81 1 -0.743945 -16.5998 9.49618 
11 86.81 1 26.2316 -12.0746 16.008 
72 67.07 2 -17.7161 3.25333 11.9925 
73 15.04 3 -17.0711 4.47473 14.3001 
46 15.04 3 -21.3749 13.2752 13.7764 
45 67.07 2 -19.6997 13.4835 11.6823 
47 29.07 4 -17.4883 12.0654 10.1341 
8 86.81 1 -16.8255 -25.6246 20.9012 
43 15.04 3 -1.11594 -29.1722 28.1531 
12 86.81 1 6.69647 -10.9169 28.0373 
76 15.04 3 -2.34323 -4.7905 28.4569 
64 15.04 3 10.5615 8.78663 27.4893 
63 67.07 2 12.0213 9.04683 25.2453 
65 29.07 4 12.0601 10.258 22.4471 
19 86.81 1 -5.30557 -30.289 32.8424 
42 67.07 2 -1.88944 -28.7138 30.6879 
44 29.07 4 -2.89998 -26.5802 32.6177 
21 67.07 2 -38.9805 -4.13963 31.2742 
22 15.04 3 -36.6171 -5.30457 31.8145 
75 67.07 2 -1.93686 -4.30385 31.0708 
77 29.07 4 -0.803476 -2.29465 33.065 
23 29.07 4 39.5623 -1.4666 31.1018 
13 86.81 1 18.2871 7.31356 37.7577 
41 29.07 4 -30.5593 18.9187 37.9964 
57 67.07 2 2.12472 23.5614 39.7823 
58 15.04 3 0.165606 22.7862 38.1105 
59 29.07 4 3.89275 25.9065 -39.3987 
27 67.07 2 -13.9349 35.5693 36.3911 
28 15.04 3 -15.3305 33.3147 35.9399 
29 29.07 4 -11.1492 36.8078 36.3269 
ITEM: TIMESTEP
0
ITEM: NUMBER OF ATOMS
80
ITEM: BOX BOUNDS pp pp pp
-4.0000000000000000e+01 4.0000000000000000e+01
-4.0000000000000000e+01 4.0000000000000000e+01
-4.0000000000000000e+01 4.0000000000000000e+01
ITEM: ATOMS id mass type x y z 
80 29.07 4 -37.404 -33.5344 -37.4432 
78 67.07 2 39.917 -32.0867 -37.2837 
79 15.04 3 37.6389 -31.5615 -38.6138 
60 67.07 2 17.1462 -15.5097 -32.8959 
61 15.04 3 17.8225 -14.2108 -30.6398 
62 29.07 4 18.1207 -16.3205 -35.6692 
30 67.07 2 28.8372 -14.5473 -36.1738 
31 15.04 3 27.0988 -12.7336 -35.2127 
32 29.07 4 29.6754 -16.0907 -38.6664 
20 86.81 1 27.7483 -14.6126 -32.0266 
15 86.81 1 -10.201 -0.283045 -38.421 
39 67.07 2 -31.878 17.981 -39.4189 
40 15.04 3 -32.4776 18.6896 -36.8944 
37 15.04 3 -30.6725 27.4968 -35.0943 
36 67.07 2 -28.1157 28.2665 -35.4181 
38 29.07 4 -25.441 28.6208 -33.9972 
17 86.81 1 -6.16795 22.4461 -33.0651 
59 29.07 4 3.89275 25.9065 -39.3987 
9 86.81 1 29.2038 -33.4279 -22.8809 
3 86.81 1 -36.6294 15.5089 -21.9544 
33 67.07 2 9.32417 -35.8359 -10.6509 
35 29.07 4 10.296 -33.3975 -12.2028 
6 86.81 1 20.408 -13.0338 -12.6975 
48 67.07 2 -4.51654 1.67095 -16.937 
49 15.04 3 -5.22434 0.398982 -14.6752 
50 29.07 4 -5.49977 3.54822 -19.1296 
34 15.04 3 8.21948 -36.6513 -8.33806 
16 86.81 1 -2.38486 -10.3714 -2.92559 
24 67.07 2 2.2274 -14.2817 -1.57313 
26 29.07 4 2.12319 -14.8754 -4.56202 
51 67.07 2 18.1447 -11.7962 -4.13859 
52 15.04 3 17.1869 -10.4455 -2.01886 
53 29.07 4 17.9504 -12.108 -7.16573 
70 15.04 3 -2.82844 -9.26026 -6.71367 
69 67.07 2 -1.28415 -7.30401 -5.70225 
71 29.07 4 -0.37029 -5.96064 -3.122 
18 86.81 1 -25.3657 9.50071 -8.989 
7 86.81 1 20.7066 4.99618 -5.03065 
2 86.81 1 7.13159 34.9521 -8.14907 
14 86.81 1 2.81855 -36.0805 9.93287 
68 29.07 4 -2.17687 -23.5521 8.74513 
1 86.81 1 -38.6277 -19.7108 1.20666 
5 86.81 1 -0.743945 -16.5998 9.49618 
25 15.04 3 3.59566 -12.9878 0.347236 
74 29.07 4 -17.985 3.6411 8.98001 
56 29.07 4 -15.0981 -31.1984 15.155 
54 67.07 2 -15.7606 -29.7122 17.7324 
55 15.04 3 -17.7603 -28.6637 19.1933 
66 67.07 2 -3.2799 -24.17 11.52 
67 15.04 3 -4.91503 -25.7957 12.9049 
11 86.81 1 26.2316 -12.0746 16.008 
10 86.81 1 -18.7573 -0.582753 10.6692 
72 67.07 2 -17.7161 3.25333 11.9925 
73 15.04 3 -17.0711 4.47473 14.3001 
46 15.04 3 -21.3749 13.2752 13.7764 
45 67.07 2 -19.6997 13.4835 11.6823 
47 29.07 4 -17.4883 12.0654 10.1341 
8 86.81 1 -16.8255 -25.6246 20.9012 
43 15.04 3 -1.11594 -29.1722 28.1531 
12 86.81 1 6.69647 -10.9169 28.0373 
76 15.04 3 -2.34323 -4.7905 28.4569 
64 15.04 3 10.5615 8.78663 27.4893 
63 67.07 2 12.0213 9.04683 25.2453 
65 29.07 4 12.0601 10.258 22.4471 
19 86.81 1 -5.30557 -30.289 32.8424 
42 67.07 2 -1.88944 -28.7138 30.6879 
44 29.07 4 -2.89998 -26.5802 32.6177 
21 67.07 2 -38.9805 -4.13963 31.2742 
22 15.04 3 -36.6171 -5.30457 31.8145 
75 67.07 2 -1.93686 -4.30385 31.0708 
77 29.07 4 -0.803476 -2.29465 33.065 
23 29.07 4 39.5623 -1.4666 31.1018 
13 86.81 1 18.2871 7.31356 37.7577 
41 29.07 4 -30.5593 18.9187 37.9964 
4 86.81 1 0.412853 28.5093 38.9247 
57 67.07 2 2.12472 23.5614 39.7823 
58 15.04 3 0.165606 22.7862 38.1105 
27 67.07 2 -13.9349 35.5693 36.3911 
28 15.04 3 -15.3305 33.3147 35.9399 
29 29.07 4 -11.1492 36.8078 36.3269 
