ITEM: TIMESTEP
0
ITEM: NUMBER OF ATOMS
400
ITEM: BOX BOUNDS pp pp pp
-4.0000000000000000e+01 4.0000000000000000e+01
-4.0000000000000000e+01 4.0000000000000000e+01
-4.0000000000000000e+01 4.0000000000000000e+01
ITEM: ATOMS id mass type x y z 
42 86.8 1 -27.7622 -38.8616 -27.3396 
99 86.8 1 -38.1665 -24.4731 -39.1788 
158 67 2 -39.7606 -32.9289 -38.5958 
159 15 3 -38.5677 -30.9368 -39.9535 
268 29 4 -8.34414 -30.4869 -37.6553 
374 67 2 -15.7518 -29.488 -34.904 
375 15 3 -16.9342 -27.3096 -33.8595 
376 29 4 -13.2572 -30.5009 -36.3177 
266 67 2 -6.20791 -28.7163 -36.4108 
267 15 3 -3.60272 -28.0527 -36.497 
160 29 4 39.2864 -33.8146 -35.8472 
372 15 3 27.042 -39.3688 -24.9635 
93 86.8 1 -39.9839 -9.65028 -32.3075 
39 86.8 1 -16.156 -13.3535 -32.9216 
352 29 4 -15.0164 -9.3376 -33.9053 
344 67 2 7.31191 -15.937 -38.6649 
346 29 4 5.78458 -18.5461 -38.9929 
55 86.8 1 14.479 -11.5641 -38.1806 
140 67 2 18.0709 -15.2414 -33.552 
141 15 3 18.8192 -17.5833 -32.461 
142 29 4 15.7137 -13.6906 -34.6859 
345 15 3 9.4769 -14.5606 -39.473 
20 86.8 1 28.7539 -12.8915 -27.5041 
110 67 2 27.8684 -15.3072 -37.487 
111 15 3 27.0469 -13.204 -38.9485 
112 29 4 30.2465 -16.5196 -36.0303 
191 67 2 27.232 -13.6428 -29.9816 
192 15 3 29.8991 -13.6806 -30.3279 
193 29 4 24.9466 -14.7501 -28.3089 
60 86.8 1 -36.2757 -5.98031 -31.0591 
95 86.8 1 -36.4846 2.87753 -37.3847 
15 86.8 1 -10.805 -0.25449 -37.2088 
59 86.8 1 -21.9858 4.34389 -32.2506 
227 67 2 -10.5871 7.70944 -24.311 
228 15 3 -8.19135 7.02806 -25.3264 
314 67 2 -19.0556 -5.99748 -26.0113 
315 15 3 -17.229 -7.71983 -25.046 
316 29 4 -21.7209 -4.65102 -25.4367 
350 67 2 -12.7406 -7.78324 -35.1905 
351 15 3 -10.2572 -7.98925 -36.2031 
23 86.8 1 10.6912 6.56633 -39.6724 
90 86.8 1 -27.7831 9.71749 -38.1489 
119 67 2 -31.0293 20.1598 -39.5295 
120 15 3 -28.8016 18.875 -38.7411 
17 86.8 1 -5.49156 23.3027 -31.7598 
138 15 3 1.8091 22.1818 -39.0194 
49 86.8 1 10.3064 19.7896 -36.9205 
69 86.8 1 16.1084 14.697 -27.9605 
320 67 2 21.2294 19.1644 -32.5274 
321 15 3 22.9094 17.1518 -33.1285 
322 29 4 21.0661 21.9966 -31.4323 
84 86.8 1 32.7592 23.7886 -25.7712 
392 67 2 30.8908 17.2279 -35.0035 
393 15 3 29.3759 18.4311 -33.1348 
394 29 4 30.8412 15.2849 -37.3422 
37 86.8 1 -26.977 37.0688 -25.3265 
94 86.8 1 -32.8891 33.3131 -26.9005 
116 67 2 -28.4115 27.7147 -35.2537 
117 15 3 -27.6224 25.1594 -34.9669 
118 29 4 -28.6973 29.9993 -37.2402 
26 86.8 1 -11.4076 33.0511 -30.9969 
221 67 2 -10.2202 33.1686 -37.688 
223 29 4 -12.8708 32.0794 -36.6704 
4 86.8 1 -0.921555 31.4227 -38.5649 
222 15 3 -7.54758 32.9616 -37.4662 
325 29 4 -1.61981 31.585 -39.6368 
34 86.8 1 10.3028 38.9862 -39.2581 
63 86.8 1 12.3018 36.4261 -26.5363 
230 67 2 10.0918 39.9478 -33.8353 
231 15 3 10.2655 39.9001 -31.1516 
232 29 4 10.8938 38.4967 -36.3846 
302 67 2 14.0457 29.0264 -31.5003 
303 15 3 11.7706 29.6315 -32.8013 
304 29 4 16.0856 26.8294 -30.9911 
41 86.8 1 34.1641 35.8494 -38.4428 
202 29 4 -32.2577 -39.7795 -20.6511 
261 15 3 -26.0627 -25.6895 -21.2994 
341 67 2 -29.3827 -27.6907 -11.3801 
342 15 3 -31.2975 -27.7104 -13.269 
343 29 4 -28.8016 -27.0522 -8.46431 
260 67 2 -23.494 -25.0521 -20.8196 
27 86.8 1 -5.67109 -34.0726 -17.9854 
115 29 4 6.61679 -34.2993 -11.9011 
244 29 4 -6.13389 -25.06 -8.62976 
67 86.8 1 16.2104 -32.4401 -21.2461 
113 67 2 9.09742 -33.817 -10.2096 
114 15 3 11.5826 -34.6999 -9.68115 
179 67 2 19.5337 -29.4986 -21.2571 
180 15 3 20.001 -27.119 -22.4205 
181 29 4 20.692 -32.2635 -20.7459 
9 86.8 1 29.0907 -33.235 -21.3637 
272 67 2 27.5042 -27.7044 -11.2922 
273 15 3 29.7689 -26.9184 -12.5119 
274 29 4 25.6302 -30.0583 -10.8508 
36 86.8 1 -38.6043 -22.1061 -16.6375 
262 29 4 -20.9613 -23.9169 -22.0622 
77 86.8 1 -7.73111 -16.8464 -17.3779 
6 86.8 1 23.8607 -12.786 -14.7544 
333 15 3 -30.1546 5.46635 -8.07955 
56 86.8 1 -20.6009 0.522678 -15.3454 
229 29 4 -12.6215 7.06343 -22.1451 
305 67 2 -21.9943 -3.92847 -19.3778 
306 15 3 -19.5794 -2.79565 -19.0316 
307 29 4 -23.857 -6.11677 -18.3834 
31 86.8 1 -1.50903 -2.29971 -11.1654 
128 67 2 -5.37584 1.57929 -16.5072 
129 15 3 -4.33667 3.64642 -15.1353 
130 29 4 -4.69551 -0.787675 -18.2909 
58 86.8 1 21.5054 1.01313 -12.3152 
3 86.8 1 -36.8171 14.2976 -19.4253 
18 86.8 1 -27.1548 9.41929 -9.98672 
164 67 2 -29.2217 14.6175 -10.0595 
165 15 3 -28.3787 13.5974 -12.4012 
327 15 3 6.69615 14.5447 -9.02602 
52 86.8 1 13.9718 23.565 -22.3464 
383 67 2 26.5885 15.3997 -15.2383 
384 15 3 24.9472 17.3035 -16.1956 
385 29 4 26.92 12.4038 -14.836 
200 67 2 -32.4112 37.8297 -18.7782 
201 15 3 -31.2414 36.6273 -16.6757 
209 67 2 -17.6286 35.2958 -14.2897 
210 15 3 -15.4892 36.9236 -14.2019 
211 29 4 -18.5117 32.3916 -14.4727 
173 67 2 20.387 32.4428 -19.8866 
174 15 3 22.8335 33.5304 -19.6286 
175 29 4 18.4168 30.4831 -18.6517 
317 67 2 15.2151 26.6244 -14.2601 
318 15 3 17.5824 25.6852 -15.1254 
319 29 4 12.6025 25.8553 -12.9073 
373 29 4 23.6464 37.9701 -21.6265 
371 67 2 24.7729 39.7594 -23.812 
54 86.8 1 -30.5748 -31.3635 -6.51071 
335 67 2 -35.2138 -35.1766 -6.03295 
336 15 3 -33.0161 -33.6284 -5.94381 
337 29 4 -36.233 -37.9801 -6.62371 
203 67 2 0.715832 -25.3828 -1.76334 
205 29 4 -0.0290965 -28.3139 -2.0809 
224 67 2 1.72877 -37.6862 2.55085 
225 15 3 0.163686 -38.9675 4.32382 
226 29 4 2.35613 -37.3698 -0.407804 
242 67 2 -4.80679 -26.7824 -6.50388 
243 15 3 -4.9718 -29.1107 -5.16719 
38 86.8 1 16.9722 -28.6115 7.058 
290 67 2 17.7258 -31.4157 -2.31971 
291 15 3 18.8546 -32.1225 -4.65663 
292 29 4 15.3353 -30.0233 -1.05713 
184 29 4 37.3554 -25.099 -4.07835 
293 67 2 34.2594 -25.3394 -3.32197 
295 29 4 33.8285 -28.2484 -4.0962 
349 29 4 31.8856 -25.2226 -0.111947 
1 86.8 1 -39.161 -19.1491 0.890539 
185 67 2 -36.8296 -17.9695 -4.78929 
186 15 3 -35.1415 -16.0263 -5.56971 
187 29 4 -38.5432 -18.9685 -2.48434 
16 86.8 1 -8.07335 -8.75822 0.604183 
48 86.8 1 -20.1738 -21.1339 1.84746 
81 86.8 1 -22.7585 -21.4197 -0.593034 
197 67 2 -13.9535 -12.2349 3.56335 
198 15 3 -12.8665 -10.3492 5.14355 
199 29 4 -14.1223 -15.2281 3.05391 
359 67 2 -12.7782 -8.00911 -6.0402 
360 15 3 -13.4597 -9.84913 -7.8799 
62 86.8 1 -4.50429 -23.5429 -5.37322 
74 86.8 1 6.70569 -17.4642 -1.35014 
104 67 2 2.73372 -12.2714 -3.20626 
105 15 3 5.07382 -12.3746 -4.5284 
106 29 4 0.486709 -13.9528 -2.03528 
149 67 2 0.730328 -9.01645 -6.02669 
151 29 4 1.81825 -11.2423 -4.2634 
204 15 3 2.43594 -23.4715 -2.55266 
365 67 2 7.77212 -12.0069 -1.5413 
366 15 3 6.00775 -11.3385 -3.45833 
131 67 2 16.1497 -11.0825 -4.00909 
132 15 3 18.8343 -11.2316 -3.93576 
133 29 4 13.5794 -12.6292 -3.51032 
248 67 2 14.9508 -20.4909 5.29304 
249 15 3 15.6854 -20.6183 7.87738 
250 29 4 14.3413 -22.1492 2.81795 
367 29 4 8.15164 -13.6252 1.00511 
395 67 2 22.6901 -13.1133 1.35265 
396 15 3 23.6622 -13.4405 -1.13388 
397 29 4 23.2735 -11.9299 4.09248 
28 86.8 1 39.1683 -18.9824 2.40829 
82 86.8 1 32.8711 -15.0559 -5.16777 
182 67 2 38.6261 -22.7151 -5.47473 
183 15 3 39.652 -21.8436 -7.80341 
294 15 3 33.5081 -22.8096 -3.84193 
347 67 2 34.1833 -23.3439 -0.774037 
348 15 3 36.7839 -22.8324 -0.315778 
178 29 4 -30.3442 5.44833 -5.65875 
332 67 2 -32.6691 5.25974 -7.14722 
334 29 4 -34.6634 3.38107 -5.82781 
10 86.8 1 -19.8872 -4.86895 7.63172 
361 29 4 -12.3759 -5.03338 -5.56006 
29 86.8 1 -3.90748 7.0544 3.26793 
150 15 3 -1.37928 -7.40213 -6.44892 
354 15 3 2.53592 6.78923 -0.631012 
7 86.8 1 22.1578 5.48786 -5.50354 
43 86.8 1 22.5905 -1.56173 -7.95857 
287 67 2 11.4899 -5.71927 3.29759 
288 15 3 14.1726 -5.91291 3.27667 
289 29 4 8.92191 -7.13079 4.11009 
245 67 2 28.4453 5.04042 5.23752 
246 15 3 30.113 3.3476 6.49757 
247 29 4 25.5503 5.50716 4.43228 
329 67 2 37.0501 0.497274 -0.556421 
330 15 3 36.1746 1.6236 -2.83672 
331 29 4 36.1869 -0.564456 2.15928 
166 29 4 -30.6603 13.9657 -7.46092 
167 67 2 -31.5893 21.9295 0.297933 
168 15 3 -29.1279 22.6288 -0.531135 
169 29 4 -33.1542 19.9149 1.95308 
176 67 2 -30.0062 8.29125 -4.63363 
177 15 3 -29.5393 9.77844 -2.44159 
251 67 2 -27.7338 21.515 3.95679 
253 29 4 -27.3062 18.7987 2.65824 
389 67 2 -10.9105 23.187 -0.57024 
391 29 4 -10.7836 20.8877 1.41585 
88 86.8 1 -2.50755 15.6317 2.27175 
206 67 2 1.9445 10.9902 0.819203 
207 15 3 1.48216 11.8133 3.33782 
208 29 4 3.90088 11.1397 -1.50406 
326 67 2 5.21526 16.4522 -7.84157 
328 29 4 5.29867 18.781 -5.88784 
353 67 2 0.973719 8.52841 -1.96124 
355 29 4 -0.994966 8.81475 -4.26115 
89 86.8 1 21.3203 10.1008 4.95343 
275 67 2 11.346 17.9751 -6.86992 
276 15 3 13.4884 19.3901 -6.0685 
277 29 4 9.74003 15.4402 -6.37737 
91 86.8 1 31.5164 16.8306 -7.69561 
263 67 2 34.9219 9.47474 2.86614 
264 15 3 34.2735 8.45592 5.26955 
265 29 4 36.8193 11.3577 1.4164 
252 15 3 -28.5785 24.0315 3.52262 
390 15 3 -9.81732 24.1967 -2.8108 
2 86.8 1 7.29414 32.6479 -7.57523 
96 86.8 1 -5.36277 27.9694 1.00365 
78 86.8 1 10.0025 31.2585 1.70389 
380 67 2 13.0222 28.2973 2.772 
381 15 3 13.1784 30.1898 4.677 
382 29 4 11.1317 26.4066 1.32345 
257 67 2 -28.7637 -24.5291 18.0106 
258 15 3 -26.1854 -25.2764 18.1809 
259 29 4 -31.4479 -24.5888 19.4383 
134 67 2 -16.0867 -30.8016 16.399 
135 15 3 -14.4377 -28.6766 16.3867 
136 29 4 -16.4474 -33.6371 17.4368 
162 15 3 -8.11597 -29.1262 17.0498 
388 29 4 -20.3686 -39.2215 9.87559 
399 15 3 -8.88322 -27.9027 17.2659 
14 86.8 1 4.3055 -37.4315 9.39068 
146 67 2 -4.41535 -25.7301 10.722 
148 29 4 -1.77661 -26.5191 12.0111 
161 67 2 -6.8918 -31.2178 15.883 
163 29 4 -6.23186 -34.1709 16.1843 
398 67 2 -6.64587 -28.9261 18.3529 
400 29 4 -5.4959 -30.2602 20.8318 
32 86.8 1 22.9409 -32.624 9.22324 
80 86.8 1 13.7113 -33.4854 11.4939 
284 67 2 22.375 -30.9354 20.1267 
286 29 4 19.3574 -31.3114 20.116 
368 67 2 21.4582 -32.4485 23.0089 
370 29 4 22.0334 -34.867 21.2576 
377 67 2 19.7636 -26.392 13.2584 
378 15 3 22.04 -25.2353 14.1038 
379 29 4 18.2809 -29.0366 13.0232 
47 86.8 1 26.406 -34.2893 19.643 
171 15 3 33.7768 -28.1313 23.0231 
269 67 2 28.4951 -24.7074 10.7812 
270 15 3 31.1542 -25.0267 10.5325 
271 29 4 25.9105 -26.0895 11.5918 
285 15 3 24.6201 -31.3534 21.5478 
30 86.8 1 -35.8338 -18.1154 14.9413 
8 86.8 1 -17.9652 -21.7039 22.7922 
5 86.8 1 -0.514897 -13.8698 11.0873 
147 15 3 -6.19312 -23.7315 10.4389 
11 86.8 1 26.393 -12.3701 14.9609 
152 67 2 -17.765 7.00213 12.3528 
153 15 3 -15.2213 7.6051 11.7198 
154 29 4 -19.5763 4.84404 13.4971 
215 67 2 -18.2647 6.44077 12.9538 
216 15 3 -19.4098 4.25586 11.8816 
44 86.8 1 0.238317 5.39898 20.6911 
92 86.8 1 19.8203 0.514581 8.55596 
145 29 4 10.8643 6.9113 23.9775 
212 67 2 19.1917 -0.0486527 22.6633 
213 15 3 19.3608 -2.72683 22.4801 
214 29 4 20.5515 2.56527 21.9111 
280 29 4 23.9962 0.474963 14.859 
71 86.8 1 24.0238 7.84507 12.1443 
278 67 2 26.6793 -0.166648 16.1383 
279 15 3 28.877 -1.70494 15.9422 
40 86.8 1 -33.0376 16.9085 21.8025 
188 67 2 -32.7653 18.4811 15.581 
189 15 3 -35.3887 18.3981 16.1687 
190 29 4 -29.9733 18.0151 16.6921 
70 86.8 1 -12.6038 8.11709 23.8534 
85 86.8 1 -16.6639 10.3109 15.8374 
125 67 2 -19.2047 11.3133 12.8751 
126 15 3 -20.9616 11.0674 10.8534 
127 29 4 -17.1077 13.1354 14.112 
217 29 4 -17.1443 9.19729 12.3263 
256 29 4 -8.31646 10.8644 11.1485 
362 67 2 -14.2418 17.7853 13.5867 
363 15 3 -11.813 17.5059 14.708 
364 29 4 -17.1098 16.7754 13.632 
46 86.8 1 4.15614 12.2387 15.538 
233 67 2 3.40602 20.6186 18.6117 
234 15 3 2.13294 22.2759 16.9184 
235 29 4 3.03257 18.7546 20.9852 
254 67 2 -5.37659 10.9856 10.3805 
255 15 3 -2.95515 11.8665 11.1522 
301 29 4 -24.0265 33.0969 14.2718 
98 86.8 1 -11.2175 26.8465 8.47991 
299 67 2 -21.7605 33.4323 12.2718 
300 15 3 -19.1086 33.1602 11.9144 
386 67 2 -19.0101 38.5765 11.4734 
387 15 3 -18.7759 37.4842 13.9202 
57 86.8 1 10.5828 25.5574 23.4106 
24 86.8 1 25.9009 35.8006 20.0383 
50 86.8 1 37.1386 27.9508 8.75969 
240 15 3 34.8691 28.6466 22.4839 
296 67 2 37.1258 36.9918 21.3974 
297 15 3 39.7746 37.1171 21.8477 
298 29 4 34.574 35.4922 22.0953 
21 86.8 1 -21.1885 -35.1457 26.4985 
61 86.8 1 -11.0117 -33.4219 38.8597 
97 86.8 1 -11.7165 -38.4245 39.6257 
19 86.8 1 -6.79422 -30.4281 34.6635 
22 86.8 1 0.331293 -31.9656 34.3006 
45 86.8 1 -4.08161 -39.6859 39.3362 
122 67 2 -1.18749 -27.4951 29.6473 
123 15 3 -3.64463 -27.1462 28.6103 
124 29 4 0.514636 -29.3041 31.4017 
194 67 2 9.77863 -26.6274 26.0619 
195 15 3 11.0162 -25.7057 28.265 
196 29 4 9.64481 -28.9427 24.0951 
369 15 3 20.6472 -31.6678 25.4518 
170 67 2 35.6574 -27.8252 24.9217 
172 29 4 36.5453 -26.0906 27.2561 
220 29 4 30.9204 -37.9912 28.7973 
12 86.8 1 8.19587 -12.022 26.709 
75 86.8 1 28.1971 -11.2168 38.8728 
338 67 2 33.8193 -8.10196 29.833 
340 29 4 31.754 -10.2594 30.4051 
101 67 2 -38.1057 -3.11269 31.6898 
102 15 3 -37.703 -3.17059 29.031 
103 29 4 -39.7866 -4.24956 33.9546 
25 86.8 1 -16.831 1.22978 28.9206 
308 67 2 -12.1354 4.72569 31.4607 
309 15 3 -9.45752 4.86115 31.6741 
310 29 4 -14.577 3.02787 32.0955 
311 67 2 -8.33605 3.80723 30.7958 
313 29 4 -9.22704 4.63537 33.5828 
64 86.8 1 4.17441 -0.67838 38.4698 
65 86.8 1 2.20876 2.59097 26.4266 
155 67 2 -1.49194 -2.96999 30.3131 
156 15 3 -3.43845 -1.12111 30.1472 
157 29 4 -0.739257 -5.65651 31.5228 
312 15 3 -6.31201 2.74403 29.3789 
356 67 2 5.45058 -3.79113 33.2258 
357 15 3 4.74711 -2.00563 35.1105 
358 29 4 4.70966 -6.44931 31.9482 
13 86.8 1 18.8545 7.20409 39.2077 
86 86.8 1 19.9824 3.3817 36.2447 
339 15 3 36.4113 -7.4368 30.1047 
33 86.8 1 -24.9414 9.94055 30.8116 
76 86.8 1 -25.2933 15.1958 35.6656 
121 29 4 -33.8408 19.7765 39.377 
79 86.8 1 -2.75482 19.66 25.0285 
100 86.8 1 1.70952 11.9831 39.3239 
137 67 2 2.68142 23.1159 38.6138 
139 29 4 4.49549 22.5237 36.2462 
53 86.8 1 23.5434 14.4011 39.1676 
143 67 2 10.5597 9.819 24.814 
144 15 3 11.8496 11.9336 25.8624 
281 67 2 10.4425 11.8495 38.4056 
282 15 3 9.74565 13.2565 36.2216 
283 29 4 12.0005 9.42923 39.3864 
68 86.8 1 36.5527 21.9976 33.2776 
73 86.8 1 37.2191 20.6028 31.9442 
87 86.8 1 -35.9264 24.2111 36.2895 
237 15 3 -24.2842 32.5602 39.0515 
107 67 2 -14.0457 34.5657 35.9556 
108 15 3 -14.3124 35.0711 33.3272 
109 29 4 -14.9319 35.4259 38.7344 
236 67 2 -23.2428 31.3113 36.909 
238 29 4 -20.6533 30.3816 35.6138 
66 86.8 1 -7.33822 26.5907 29.5886 
323 67 2 -1.07234 29.989 37.8333 
324 15 3 0.72697 29.5377 35.8856 
35 86.8 1 29.1662 36.7299 38.7815 
51 86.8 1 24.0727 29.3991 30.5024 
72 86.8 1 28.9513 25.0727 36.8583 
83 86.8 1 25.3053 26.4002 28.3425 
218 67 2 31.8098 39.2725 27.813 
219 15 3 33.8224 37.4885 27.8526 
239 67 2 36.3645 29.45 24.5704 
241 29 4 37.3979 31.8844 26.0714 
ITEM: TIMESTEP
32
ITEM: NUMBER OF ATOMS
400
ITEM: BOX BOUNDS pp pp pp
-4.0000000000000000e+01 4.0000000000000000e+01
-4.0000000000000000e+01 4.0000000000000000e+01
-4.0000000000000000e+01 4.0000000000000000e+01
ITEM: ATOMS id mass type x y z 
42 86.8 1 -27.7699 -38.7742 -27.3497 
99 86.8 1 -38.1752 -24.5002 -39.1908 
158 67 2 -39.7577 -32.9257 -38.5958 
159 15 3 -38.5666 -30.9291 -39.9484 
268 29 4 -8.34527 -30.5089 -37.6795 
374 67 2 -15.7537 -29.496 -34.9113 
375 15 3 -16.9322 -27.3158 -33.866 
376 29 4 -13.2556 -30.5152 -36.3324 
266 67 2 -6.20808 -28.7319 -36.4253 
267 15 3 -3.6038 -28.064 -36.5061 
160 29 4 39.2844 -33.8203 -35.8425 
372 15 3 27.0512 -39.3625 -24.9731 
93 86.8 1 -40.0259 -9.70768 -32.3197 
39 86.8 1 -16.1348 -13.3216 -32.915 
352 29 4 -15.0237 -9.35426 -33.9068 
344 67 2 7.3178 -15.9263 -38.6655 
346 29 4 5.78657 -18.5429 -38.9935 
55 86.8 1 14.4707 -11.627 -38.15 
140 67 2 18.0689 -15.2292 -33.5588 
141 15 3 18.813 -17.572 -32.4668 
142 29 4 15.71 -13.6733 -34.7048 
345 15 3 9.4841 -14.5508 -39.4719 
20 86.8 1 28.6919 -12.9615 -27.629 
110 67 2 27.876 -15.2767 -37.507 
111 15 3 27.075 -13.1719 -38.978 
112 29 4 30.2479 -16.5081 -36.0384 
191 67 2 27.2606 -13.5975 -29.9216 
192 15 3 29.9257 -13.659 -30.2767 
193 29 4 24.9568 -14.7429 -28.2853 
60 86.8 1 -36.2316 -5.96444 -31.0312 
95 86.8 1 -36.4959 2.86752 -37.3973 
15 86.8 1 -10.7957 -0.283841 -37.204 
59 86.8 1 -21.9585 4.32439 -32.2128 
227 67 2 -10.5887 7.71321 -24.3254 
228 15 3 -8.19191 7.03314 -25.3394 
314 67 2 -19.0563 -5.99879 -26.0269 
315 15 3 -17.2305 -7.72032 -25.0585 
316 29 4 -21.728 -4.64567 -25.4528 
350 67 2 -12.7476 -7.78513 -35.1934 
351 15 3 -10.2628 -7.98005 -36.2049 
23 86.8 1 10.6792 6.61468 -39.6915 
90 86.8 1 -27.7834 9.72934 -38.1301 
119 67 2 -31.0334 20.1484 -39.5415 
120 15 3 -28.8097 18.8555 -38.755 
17 86.8 1 -5.49487 23.2989 -31.7508 
138 15 3 1.81173 22.174 -39.0137 
49 86.8 1 10.292 19.8121 -36.9207 
69 86.8 1 16.1217 14.7086 -27.9371 
320 67 2 21.2231 19.1534 -32.5379 
321 15 3 22.9008 17.1397 -33.142 
322 29 4 21.063 21.9928 -31.4379 
84 86.8 1 32.7441 23.7927 -25.7481 
392 67 2 30.8928 17.2331 -35.0159 
393 15 3 29.382 18.4343 -33.1426 
394 29 4 30.8388 15.2826 -37.3591 
37 86.8 1 -26.9473 37.0246 -25.2546 
94 86.8 1 -32.9084 33.298 -26.883 
116 67 2 -28.4204 27.7105 -35.2461 
117 15 3 -27.6268 25.1563 -34.961 
118 29 4 -28.7088 30.0027 -37.2361 
26 86.8 1 -11.4195 33.0528 -31.0164 
221 67 2 -10.2076 33.1762 -37.6715 
223 29 4 -12.8637 32.0794 -36.6513 
4 86.8 1 -1.10481 31.4322 -38.8992 
222 15 3 -7.53463 32.9658 -37.4581 
325 29 4 -1.42458 31.5013 -39.4303 
34 86.8 1 10.319 38.9961 -39.1746 
63 86.8 1 12.3118 36.4352 -26.5339 
230 67 2 10.0865 39.9439 -33.854 
231 15 3 10.2706 39.8825 -31.171 
232 29 4 10.8819 38.5036 -36.4215 
302 67 2 14.0411 29.0238 -31.5057 
303 15 3 11.766 29.6287 -32.8069 
304 29 4 16.0862 26.8207 -30.9941 
41 86.8 1 34.2133 35.8818 -38.4157 
202 29 4 -32.2519 -39.7811 -20.6771 
261 15 3 -26.0654 -25.6903 -21.3071 
341 67 2 -29.3838 -27.6963 -11.3776 
342 15 3 -31.2973 -27.7094 -13.2679 
343 29 4 -28.8016 -27.0606 -8.4527 
260 67 2 -23.4968 -25.0542 -20.825 
27 86.8 1 -5.6697 -34.0658 -17.9614 
115 29 4 6.60895 -34.3051 -11.9124 
244 29 4 -6.13264 -25.0282 -8.63143 
67 86.8 1 16.268 -32.4031 -21.22 
113 67 2 9.09694 -33.8229 -10.2167 
114 15 3 11.5813 -34.7077 -9.68788 
179 67 2 19.5136 -29.5092 -21.2732 
180 15 3 19.9923 -27.1251 -22.423 
181 29 4 20.675 -32.2796 -20.7502 
9 86.8 1 29.0675 -33.2412 -21.3389 
272 67 2 27.5053 -27.7009 -11.3082 
273 15 3 29.7707 -26.916 -12.5277 
274 29 4 25.6292 -30.0624 -10.859 
36 86.8 1 -38.5991 -22.123 -16.5982 
262 29 4 -20.9561 -23.9151 -22.0681 
77 86.8 1 -7.73077 -16.8396 -17.3617 
6 86.8 1 23.8458 -12.8178 -14.7317 
333 15 3 -30.1628 5.4609 -8.12234 
56 86.8 1 -20.5904 0.484869 -15.3566 
229 29 4 -12.6278 7.06695 -22.1522 
305 67 2 -21.9993 -3.9102 -19.3681 
306 15 3 -19.5855 -2.77635 -19.0177 
307 29 4 -23.863 -6.11333 -18.3826 
31 86.8 1 -1.51779 -2.30474 -11.1513 
128 67 2 -5.37076 1.57646 -16.5042 
129 15 3 -4.33105 3.64441 -15.134 
130 29 4 -4.68973 -0.7956 -18.2952 
58 86.8 1 21.4819 1.0289 -12.3631 
3 86.8 1 -36.8039 14.2981 -19.3871 
18 86.8 1 -27.2058 9.44189 -9.91788 
164 67 2 -29.2166 14.6086 -10.081 
165 15 3 -28.3728 13.5797 -12.4185 
327 15 3 6.68617 14.5463 -9.03719 
52 86.8 1 13.9839 23.5939 -22.3021 
383 67 2 26.592 15.3976 -15.2419 
384 15 3 24.9513 17.301 -16.201 
385 29 4 26.9233 12.3937 -14.8356 
200 67 2 -32.4045 37.8196 -18.8014 
201 15 3 -31.2411 36.6222 -16.6925 
209 67 2 -17.6257 35.2992 -14.3013 
210 15 3 -15.4854 36.9259 -14.2104 
211 29 4 -18.5126 32.3873 -14.4814 
173 67 2 20.3881 32.4383 -19.8978 
174 15 3 22.8354 33.5228 -19.6352 
175 29 4 18.4071 30.4769 -18.6622 
317 67 2 15.2132 26.621 -14.2721 
318 15 3 17.5799 25.6771 -15.134 
319 29 4 12.5937 25.8568 -12.9112 
373 29 4 23.647 37.9747 -21.6331 
371 67 2 24.7802 39.7654 -23.8257 
54 86.8 1 -30.6302 -31.3907 -6.5245 
335 67 2 -35.1935 -35.1613 -6.03409 
336 15 3 -32.9936 -33.6155 -5.95295 
337 29 4 -36.2217 -37.9709 -6.6244 
203 67 2 0.710739 -25.374 -1.76943 
205 29 4 -0.0316784 -28.315 -2.08153 
224 67 2 1.73857 -37.6987 2.56201 
225 15 3 0.172934 -38.9765 4.33702 
226 29 4 2.36038 -37.3784 -0.405991 
242 67 2 -4.81794 -26.752 -6.4874 
243 15 3 -4.97303 -29.0943 -5.17411 
38 86.8 1 16.9766 -28.5383 7.03453 
290 67 2 17.7279 -31.4244 -2.31261 
291 15 3 18.8554 -32.1286 -4.65095 
292 29 4 15.3331 -30.0268 -1.04385 
184 29 4 37.3908 -25.0988 -4.08256 
293 67 2 34.2455 -25.3336 -3.33266 
295 29 4 33.8232 -28.2538 -4.10299 
349 29 4 31.8955 -25.2115 -0.0896843 
1 86.8 1 -38.9659 -19.2098 0.599802 
185 67 2 -36.8323 -17.9605 -4.76157 
186 15 3 -35.144 -16.025 -5.56096 
187 29 4 -38.537 -18.9494 -2.43445 
16 86.8 1 -8.07675 -8.77017 0.586656 
48 86.8 1 -20.0651 -21.1262 1.93853 
81 86.8 1 -22.846 -21.4342 -0.683394 
197 67 2 -13.9561 -12.2296 3.5644 
198 15 3 -12.8652 -10.345 5.14336 
199 29 4 -14.1292 -15.2309 3.05361 
359 67 2 -12.7785 -8.01356 -6.03908 
360 15 3 -13.4606 -9.85235 -7.8799 
62 86.8 1 -4.48428 -23.632 -5.38345 
74 86.8 1 6.70729 -17.3942 -1.3555 
104 67 2 2.7353 -12.2995 -3.1936 
105 15 3 5.05215 -12.4128 -4.55549 
106 29 4 0.470619 -13.9723 -2.02281 
149 67 2 0.707487 -8.99444 -6.04652 
151 29 4 1.79336 -11.2301 -4.28028 
204 15 3 2.43404 -23.4642 -2.55524 
365 67 2 7.79307 -12.0184 -1.53098 
366 15 3 6.0416 -11.318 -3.44821 
131 67 2 16.1593 -11.0734 -4.0264 
132 15 3 18.8442 -11.217 -3.95405 
133 29 4 13.5853 -12.6281 -3.52046 
248 67 2 14.9489 -20.4977 5.30158 
249 15 3 15.6844 -20.6259 7.88561 
250 29 4 14.3391 -22.1595 2.81875 
367 29 4 8.14578 -13.6534 1.01851 
395 67 2 22.7025 -13.108 1.34976 
396 15 3 23.6776 -13.4333 -1.13589 
397 29 4 23.283 -11.9219 4.09831 
28 86.8 1 38.9213 -19.0097 2.55236 
82 86.8 1 32.8666 -15.1005 -5.15024 
182 67 2 38.6463 -22.7025 -5.48934 
183 15 3 39.66 -21.8279 -7.82217 
294 15 3 33.4955 -22.8061 -3.86642 
347 67 2 34.193 -23.3097 -0.725603 
348 15 3 36.7957 -22.8037 -0.272006 
178 29 4 -30.3195 5.43991 -5.64623 
332 67 2 -32.6776 5.25091 -7.19067 
334 29 4 -34.6656 3.37473 -5.83919 
10 86.8 1 -19.881 -4.85157 7.62188 
361 29 4 -12.3745 -5.03004 -5.55584 
29 86.8 1 -3.88861 7.0622 3.24603 
150 15 3 -1.39898 -7.37599 -6.46762 
354 15 3 2.5259 6.77127 -0.631424 
7 86.8 1 22.1575 5.51918 -5.47011 
43 86.8 1 22.5955 -1.63225 -7.88903 
287 67 2 11.4962 -5.7015 3.30944 
288 15 3 14.1789 -5.8956 3.28402 
289 29 4 8.92192 -7.1199 4.12149 
245 67 2 28.4249 5.04734 5.245 
246 15 3 30.0918 3.35125 6.50191 
247 29 4 25.5229 5.5169 4.43521 
329 67 2 37.0444 0.490707 -0.56632 
330 15 3 36.1656 1.61896 -2.84443 
331 29 4 36.1838 -0.571245 2.15947 
166 29 4 -30.6616 13.9652 -7.47412 
167 67 2 -31.6046 21.9338 0.281645 
168 15 3 -29.1445 22.6338 -0.551027 
169 29 4 -33.17 19.9175 1.94976 
176 67 2 -29.9883 8.29504 -4.62841 
177 15 3 -29.533 9.79101 -2.44003 
251 67 2 -27.7252 21.52 3.9705 
253 29 4 -27.2989 18.797 2.66595 
389 67 2 -10.8946 23.1988 -0.564861 
391 29 4 -10.7732 20.8895 1.42272 
88 86.8 1 -2.4886 15.6036 2.25155 
206 67 2 1.93552 11.0103 0.838164 
207 15 3 1.47021 11.8292 3.35757 
208 29 4 3.90578 11.1538 -1.48485 
326 67 2 5.20654 16.4551 -7.85296 
328 29 4 5.29036 18.7867 -5.8894 
353 67 2 0.958224 8.51207 -1.95324 
355 29 4 -1.00745 8.80735 -4.2656 
89 86.8 1 21.3331 10.0997 4.93071 
275 67 2 11.3645 17.9762 -6.86863 
276 15 3 13.5033 19.3958 -6.0657 
277 29 4 9.75675 15.4331 -6.37274 
91 86.8 1 31.5232 16.8324 -7.68776 
263 67 2 34.9097 9.48391 2.86953 
264 15 3 34.2668 8.46459 5.27422 
265 29 4 36.8136 11.3667 1.41078 
252 15 3 -28.571 24.0368 3.53952 
390 15 3 -9.80411 24.2056 -2.80803 
2 86.8 1 7.30233 32.651 -7.58258 
96 86.8 1 -5.38762 27.959 0.983276 
78 86.8 1 10.0531 31.2112 1.72325 
380 67 2 13.007 28.3222 2.7665 
381 15 3 13.1616 30.2084 4.67764 
382 29 4 11.1166 26.416 1.32082 
257 67 2 -28.7609 -24.5205 18.0127 
258 15 3 -26.1833 -25.2694 18.185 
259 29 4 -31.4544 -24.5817 19.4407 
134 67 2 -16.1024 -30.7955 16.4093 
135 15 3 -14.4575 -28.6674 16.3933 
136 29 4 -16.4555 -33.6401 17.4492 
162 15 3 -8.07845 -29.0994 17.0954 
388 29 4 -20.3708 -39.2152 9.87153 
399 15 3 -8.88474 -27.9518 17.2461 
14 86.8 1 4.26456 -37.4097 9.36042 
146 67 2 -4.41064 -25.7181 10.7125 
148 29 4 -1.76744 -26.5133 12.0084 
161 67 2 -6.90822 -31.2034 15.8933 
163 29 4 -6.23504 -34.163 16.1907 
398 67 2 -6.64435 -28.9434 18.3538 
400 29 4 -5.49436 -30.2599 20.8524 
32 86.8 1 22.9721 -32.5804 9.22743 
80 86.8 1 13.7078 -33.458 11.5117 
284 67 2 22.3941 -30.9487 20.1059 
286 29 4 19.3667 -31.3156 20.1028 
368 67 2 21.4616 -32.4728 23.0232 
370 29 4 22.0443 -34.897 21.2674 
377 67 2 19.756 -26.4042 13.246 
378 15 3 22.0268 -25.2444 14.1024 
379 29 4 18.2729 -29.0576 13.0047 
47 86.8 1 26.3488 -34.1994 19.6843 
171 15 3 33.7785 -28.1323 23.0252 
269 67 2 28.5021 -24.7094 10.7825 
270 15 3 31.1617 -25.0255 10.5349 
271 29 4 25.911 -26.1008 11.5877 
285 15 3 24.6422 -31.3779 21.5192 
30 86.8 1 -35.8345 -18.1326 14.9486 
8 86.8 1 -17.956 -21.7238 22.7625 
5 86.8 1 -0.509044 -13.8919 11.0665 
147 15 3 -6.19009 -23.7202 10.4351 
11 86.8 1 26.386 -12.3813 14.9468 
152 67 2 -17.3925 7.11416 11.7147 
153 15 3 -14.8137 7.87348 11.5427 
154 29 4 -19.3691 5.35935 13.2367 
215 67 2 -18.8398 6.21433 13.3209 
216 15 3 -19.5766 3.89547 12.1744 
44 86.8 1 0.219947 5.39233 20.6564 
92 86.8 1 19.8251 0.470723 8.55358 
145 29 4 10.8573 6.9099 23.9803 
212 67 2 19.1881 -0.0448549 22.6733 
213 15 3 19.356 -2.723 22.4882 
214 29 4 20.5501 2.57638 21.917 
280 29 4 23.9892 0.485709 14.8511 
71 86.8 1 24.0593 7.81458 12.1514 
278 67 2 26.6779 -0.159438 16.1368 
279 15 3 28.8734 -1.70145 15.9449 
40 86.8 1 -33.0222 16.9236 21.7144 
188 67 2 -32.7755 18.4781 15.6078 
189 15 3 -35.3987 18.394 16.1963 
190 29 4 -29.9754 18.0098 16.7203 
70 86.8 1 -12.5959 8.10841 23.8367 
85 86.8 1 -16.7311 10.3165 15.6284 
125 67 2 -19.2238 11.3193 12.9133 
126 15 3 -20.9591 11.0855 10.8712 
127 29 4 -17.0934 13.1127 14.1551 
217 29 4 -17.3211 8.82477 12.8878 
256 29 4 -8.30836 10.8607 11.1531 
362 67 2 -14.2288 17.7958 13.6018 
363 15 3 -11.8006 17.5107 14.723 
364 29 4 -17.1063 16.7875 13.6451 
46 86.8 1 4.14847 12.2548 15.507 
233 67 2 3.40824 20.6176 18.6217 
234 15 3 2.13713 22.2748 16.9267 
235 29 4 3.03066 18.7474 21.0002 
254 67 2 -5.35971 10.9834 10.3859 
255 15 3 -2.93946 11.8654 11.16 
301 29 4 -24.032 33.0912 14.2813 
98 86.8 1 -11.2559 26.8405 8.4768 
299 67 2 -21.76 33.4163 12.2737 
300 15 3 -19.1081 33.1419 11.9173 
386 67 2 -19.0029 38.5836 11.4783 
387 15 3 -18.7684 37.4949 13.9268 
57 86.8 1 10.5619 25.5575 23.3881 
24 86.8 1 25.9282 35.8339 20.0236 
50 86.8 1 37.1649 27.9531 8.74741 
240 15 3 34.8576 28.6273 22.4973 
296 67 2 37.1229 36.9885 21.3943 
297 15 3 39.771 37.1132 21.8492 
298 29 4 34.5619 35.4874 22.0918 
21 86.8 1 -21.1893 -35.1492 26.4621 
61 86.8 1 -11.0373 -33.337 38.9 
97 86.8 1 -11.7684 -38.4961 39.6352 
19 86.8 1 -6.78086 -30.3686 34.6221 
22 86.8 1 0.368452 -31.9039 34.2405 
45 86.8 1 -4.06582 -39.7031 39.3405 
122 67 2 -1.19395 -27.5116 29.6753 
123 15 3 -3.64812 -27.1554 28.6336 
124 29 4 0.505169 -29.3324 31.4349 
194 67 2 9.77616 -26.6275 26.0694 
195 15 3 11.0145 -25.7051 28.2718 
196 29 4 9.64272 -28.9488 24.0966 
369 15 3 20.6465 -31.6928 25.465 
170 67 2 35.6589 -27.8261 24.9239 
172 29 4 36.5494 -26.0865 27.2646 
220 29 4 30.909 -37.9952 28.8072 
12 86.8 1 8.19155 -12.0366 26.7061 
75 86.8 1 28.1763 -11.295 38.9108 
338 67 2 33.8161 -8.09719 29.8424 
340 29 4 31.745 -10.2609 30.4138 
101 67 2 -38.0977 -3.10091 31.6991 
102 15 3 -37.6953 -3.16054 29.0403 
103 29 4 -39.7818 -4.24084 33.9713 
25 86.8 1 -16.7828 1.22608 28.9353 
308 67 2 -12.0555 4.69602 31.4747 
309 15 3 -9.36648 4.62632 31.4219 
310 29 4 -14.5579 3.05889 32.0657 
311 67 2 -8.40275 3.95728 30.8759 
313 29 4 -9.27711 4.6767 33.7061 
64 86.8 1 4.15756 -0.741369 38.4057 
65 86.8 1 2.20178 2.5457 26.4588 
155 67 2 -1.48544 -2.96102 30.3108 
156 15 3 -3.42953 -1.11003 30.1413 
157 29 4 -0.737079 -5.65693 31.5232 
312 15 3 -6.44694 2.82322 29.4145 
356 67 2 5.45727 -3.76907 33.2464 
357 15 3 4.75252 -1.99328 35.14 
358 29 4 4.72135 -6.43297 31.9575 
13 86.8 1 18.8369 7.2344 39.2375 
86 86.8 1 20 3.30596 36.1819 
339 15 3 36.4092 -7.43477 30.1101 
33 86.8 1 -24.9329 9.92084 30.7641 
76 86.8 1 -25.285 15.2528 35.6768 
121 29 4 -33.8546 19.7747 39.3633 
79 86.8 1 -2.74821 19.6594 24.9943 
100 86.8 1 1.69863 11.9898 39.3181 
137 67 2 2.68383 23.1093 38.62 
139 29 4 4.50238 22.5167 36.2452 
53 86.8 1 23.5571 14.4166 39.1944 
143 67 2 10.5556 9.82537 24.8212 
144 15 3 11.8491 11.9385 25.8683 
281 67 2 10.4471 11.8335 38.4197 
282 15 3 9.75191 13.2452 36.2381 
283 29 4 11.9925 9.39327 39.3974 
68 86.8 1 36.4548 22.2413 33.4869 
73 86.8 1 37.3505 20.3525 31.678 
87 86.8 1 -35.857 24.2304 36.3151 
237 15 3 -24.2868 32.5621 39.0525 
107 67 2 -14.0321 34.5774 35.9562 
108 15 3 -14.3021 35.0761 33.3269 
109 29 4 -14.9245 35.4409 38.7412 
236 67 2 -23.2477 31.3087 36.9114 
238 29 4 -20.6525 30.3739 35.6116 
66 86.8 1 -7.35519 26.6148 29.5873 
323 67 2 -1.0524 30.0506 37.916 
324 15 3 0.690528 29.5513 35.9261 
35 86.8 1 29.1328 36.785 38.7597 
51 86.8 1 24.0285 29.5121 30.5332 
72 86.8 1 28.9434 25.0743 36.8976 
83 86.8 1 25.3359 26.3361 28.2439 
218 67 2 31.7972 39.2563 27.8301 
219 15 3 33.8104 37.4731 27.8698 
239 67 2 36.3492 29.4261 24.5882 
241 29 4 37.3954 31.8643 26.0912 
ITEM: TIMESTEP
0
ITEM: NUMBER OF ATOMS
400
ITEM: BOX BOUNDS pp pp pp
-4.0000000000000000e+01 4.0000000000000000e+01
-4.0000000000000000e+01 4.0000000000000000e+01
-4.0000000000000000e+01 4.0000000000000000e+01
ITEM: ATOMS id mass type x y z 
42 86.8 1 -27.7699 -38.7742 -27.3497 
99 86.8 1 -38.1752 -24.5002 -39.1908 
158 67 2 -39.7577 -32.9257 -38.5958 
159 15 3 -38.5666 -30.9291 -39.9484 
268 29 4 -8.34527 -30.5089 -37.6795 
374 67 2 -15.7537 -29.496 -34.9113 
375 15 3 -16.9322 -27.3158 -33.866 
376 29 4 -13.2556 -30.5152 -36.3324 
266 67 2 -6.20808 -28.7319 -36.4253 
267 15 3 -3.6038 -28.064 -36.5061 
160 29 4 39.2844 -33.8203 -35.8425 
372 15 3 27.0512 -39.3625 -24.9731 
39 86.8 1 -16.1348 -13.3216 -32.915 
352 29 4 -15.0237 -9.35426 -33.9068 
344 67 2 7.3178 -15.9263 -38.6655 
346 29 4 5.78657 -18.5429 -38.9935 
55 86.8 1 14.4707 -11.627 -38.15 
140 67 2 18.0689 -15.2292 -33.5588 
141 15 3 18.813 -17.572 -32.4668 
142 29 4 15.71 -13.6733 -34.7048 
345 15 3 9.4841 -14.5508 -39.4719 
93 86.8 1 39.9741 -9.70768 -32.3197 
20 86.8 1 28.6919 -12.9615 -27.629 
110 67 2 27.876 -15.2767 -37.507 
111 15 3 27.075 -13.1719 -38.978 