4
Atoms. Timestep: 0
1 10 0 0
2 0.930064 0.67314 0.003587
3 3.61887 0.602433 0.01098
4 -1.57953 -0.87466 0.74759
4
Atoms. Timestep: 100
1 8.56773 0.109045 0.00988765
2 1.44291 0.643935 0.00671284
3 4.1235 0.426261 0.0491514
4 -1.16473 -0.778328 0.696405
4
Atoms. Timestep: 200
1 8.56571 0.10087 0.0118406
2 1.44128 0.645637 0.00402101
3 4.12276 0.439524 0.047449
4 -1.16035 -0.785118 0.698846
4
Atoms. Timestep: 300
1 8.56329 0.0923621 0.0137827
2 1.4397 0.647315 0.00109086
3 4.12207 0.453367 0.0459238
4 -1.15566 -0.792132 0.70136
4
Atoms. Timestep: 400
1 8.56034 0.082512 0.0159129
2 1.43795 0.649141 -0.00246025
3 4.12128 0.469448 0.0444633
4 -1.15016 -0.800188 0.704241
4
Atoms. Timestep: 500
1 8.55687 0.0715898 0.0181301
2 1.4361 0.651012 -0.00659651
3 4.1204 0.487349 0.0432199
4 -1.14397 -0.809038 0.707404
4
Atoms. Timestep: 600
1 8.55255 0.0587754 0.0205424
2 1.43406 0.652997 -0.0117161
3 4.11938 0.508448 0.0422557
4 -1.13658 -0.819308 0.711075
4
Atoms. Timestep: 700
1 8.54644 0.0419072 0.0234261
2 1.43159 0.655256 -0.0188771
3 4.11803 0.536388 0.0417551
4 -1.12666 -0.832639 0.715853
4
Atoms. Timestep: 800
1 8.53647 0.0169323 0.0271456
2 1.42844 0.657859 -0.030303
3 4.11602 0.578102 0.0424831
4 -1.11153 -0.85198 0.722831
4
Atoms. Timestep: 900
1 8.52314 -0.012677 0.0306498
2 1.4256 0.659606 -0.0452627
3 4.11361 0.628202 0.0457821
4 -1.09294 -0.874218 0.730988
4
Atoms. Timestep: 1000
1 8.47714 -0.0942034 0.0362098
2 1.42388 0.656406 -0.0928567
3 4.10653 0.770181 0.065891
4 -1.03815 -0.931471 0.752913
