ITEM: TIMESTEP
0
ITEM: NUMBER OF ATOMS
800
ITEM: BOX BOUNDS pp pp pp
-5.4256120000000001e+00 5.4256120000000001e+00
-5.4256120000000001e+00 5.4256120000000001e+00
-5.4256120000000001e+00 5.4256120000000001e+00
ITEM: ATOMS id type x y z 
701 2 -3.12152 -4.37069 -5.09639 
792 2 -3.85145 -3.17569 -5.1786 
794 2 -2.45663 -2.63879 -4.92843 
542 2 -4.3553 -1.95837 -5.41329 
757 2 -2.11457 -4.54498 -4.06413 
539 2 -4.78123 -3.71668 -4.06858 
655 2 -4.31586 -2.86169 -4.2651 
791 2 -3.25385 -2.81548 -4.19038 
541 2 -4.94884 -2.02371 -4.43744 
538 2 -4.11962 -3.45738 -3.22969 
790 2 -3.01821 -4.02076 -3.97512 
540 2 -5.03802 -2.87649 -3.54726 
656 2 -4.03849 -2.10277 -3.37554 
796 2 -2.87554 -1.84646 -3.5017 
567 2 -4.82153 -5.31618 -2.47509 
537 2 -4.84218 -4.29997 -3.08748 
788 2 -2.59469 -4.27355 -2.97141 
789 2 -2.93436 -3.17259 -3.20808 
531 2 -5.03371 -1.91751 -2.94814 
472 2 -2.05621 -2.65582 -3.3761 
787 2 -3.13802 -5.07182 -2.32672 
115 1 -4.03995 -4.37219 -1.87265 
116 1 -3.27074 -3.77738 -1.89668 
534 2 -5.22851 -2.67762 -2.2524 
536 2 -4.69532 -3.59594 -2.23608 
761 2 -2.3233 -2.44574 -1.82716 
477 2 -1.384 -2.42795 -5.1077 
243 1 -0.0581785 -2.29485 -4.88508 
482 2 1.48968 -2.14925 -5.17822 
630 2 1.23982 -5.19826 -4.60123 
145 1 1.62494 -4.02462 -4.44045 
474 2 -0.694259 -3.663 -4.55686 
146 1 0.622939 -3.95072 -4.1903 
473 2 -1.78633 -3.27122 -4.27095 
242 1 -0.527091 -2.02533 -3.9963 
633 2 0.494862 -5.29766 -3.35056 
751 2 -0.484921 -4.83301 -3.9711 
758 2 -1.28863 -4.22544 -3.38817 
260 1 0.199516 -3.18079 -3.34988 
259 1 0.74652 -2.75013 -4.05691 
258 1 1.57083 -2.22669 -3.8114 
632 2 1.66525 -5.24434 -3.55279 
418 2 -0.470688 -4.91306 -2.82649 
147 1 0.946056 -4.04248 -3.37342 
261 1 -0.689695 -2.9978 -3.10252 
551 2 0.190826 -2.15549 -2.91626 
257 1 1.79694 -2.46356 -2.96225 
753 2 -1.71251 -5.01691 -2.58237 
521 2 0.3428 -4.68952 -1.9813 
759 2 -1.4922 -3.53975 -2.38825 
417 2 -0.0252788 -3.87131 -2.59606 
148 1 1.21301 -3.46776 -2.60446 
262 1 -0.340404 -2.87917 -2.24192 
760 2 -1.34769 -2.38326 -2.27911 
265 1 1.6095 -2.04575 -1.8161 
454 2 1.13207 -5.26951 -2.48347 
263 1 -0.386174 -1.91039 -1.8295 
144 1 2.29855 -4.37761 -5.25543 
142 1 3.13555 -3.59607 -5.2896 
48 1 4.17843 -2.7468 -5.03114 
47 1 4.42307 -1.8267 -5.32511 
46 1 5.30504 -2.00556 -5.25531 
25 1 3.31536 -2.61167 -3.99067 
654 2 5.41594 -2.98049 -4.61005 
150 1 2.44434 -3.13099 -3.81722 
24 1 3.07131 -2.24738 -3.21966 
653 2 4.79346 -1.97576 -4.15232 
566 2 5.23595 -5.30545 -3.36315 
452 2 2.88575 -4.95161 -3.49807 
569 2 4.03516 -4.53145 -3.08132 
453 2 2.23698 -4.97279 -2.61956 
570 2 2.97103 -4.11243 -2.69742 
149 1 2.05905 -3.49284 -3.0037 
527 2 4.83232 -3.82078 -2.5517 
530 2 4.8752 -2.58383 -3.10031 
652 2 4.03696 -1.879 -3.20257 
568 2 4.90028 -4.96022 -2.29332 
526 2 3.91939 -4.33117 -2.06737 
256 1 2.60196 -2.67644 -2.32376 
529 2 3.99439 -3.10581 -2.54477 
44 1 -4.7641 -0.978802 -4.78475 
544 2 -4.11083 0.152277 -5.0739 
87 1 -2.85501 0.245028 -4.72107 
85 1 -1.95154 -0.504402 -5.10248 
90 1 -2.13707 1.74085 -5.06516 
795 2 -2.80518 -1.62822 -4.66968 
43 1 -3.90066 -1.28533 -4.31027 
797 2 -2.37723 -0.895795 -4.0176 
685 2 -5.0676 0.967886 -4.58124 
545 2 -3.53855 1.19789 -4.80956 
86 1 -1.94244 0.549777 -4.63308 
471 2 -1.9113 -1.5111 -3.15838 
657 2 -4.76683 -1.13421 -3.70819 
42 1 -3.62134 -1.04958 -3.35288 
40 1 -4.5452 -0.108247 -3.76995 
39 1 -3.89115 0.513125 -3.96233 
38 1 -3.34534 0.801153 -3.21295 
747 2 -2.44204 0.349185 -3.54787 
546 2 -3.94456 1.6915 -3.77302 
640 2 -2.36572 1.73188 -3.88133 
549 2 -5.08672 -0.582021 -2.81818 
748 2 -2.45835 -0.554705 -2.88067 
41 1 -4.06074 -0.176446 -2.92661 
37 1 -3.62364 0.715626 -2.41017 
547 2 -4.71256 1.16078 -3.06857 
369 1 -2.42207 1.18378 -2.41838 
749 2 -2.64376 -1.41795 -2.30298 
351 1 -4.80624 0.0590496 -1.9412 
469 2 -2.02241 -0.160988 -1.92856 
352 1 -5.30191 0.758785 -2.13812 
36 1 -3.88154 1.53904 -2.38507 
543 2 -3.90099 -1.01412 -5.40074 
484 2 0.236492 -0.763822 -5.30522 
237 1 -0.76756 -0.311507 -4.87012 
485 2 1.05211 0.080089 -5.24318 
235 1 -0.891446 0.903679 -5.18364 
233 1 0.742251 1.05873 -4.98957 
479 2 -1.35903 -1.24242 -4.52498 
481 2 0.718878 -1.58154 -4.56996 
480 2 -0.19102 -1.04942 -4.29803 
490 2 0.254977 0.0329832 -4.46002 
488 2 1.32739 0.22834 -4.18654 
238 1 -0.759018 0.108868 -4.0439 
234 1 -0.203516 1.44806 -4.9918 
241 1 -0.788553 -1.47922 -3.23788 
491 2 0.917857 -0.845536 -3.87771 
798 2 -1.49771 -0.324505 -3.47827 
239 1 -0.311681 -0.243159 -3.28974 
489 2 0.432758 0.971941 -3.91546 
746 2 -1.41045 1.04056 -3.51627 
745 2 -0.329995 1.7674 -3.40972 
719 2 1.20767 1.71169 -3.60414 
240 1 0.0573145 -1.08935 -3.05111 
799 2 -1.09875 0.169758 -2.54773 
492 2 0.850211 0.0846047 -3.13159 
715 2 -0.0375549 0.713771 -2.88917 
716 2 1.05741 0.958909 -2.57907 
552 2 0.546104 -1.30265 -2.07396 
470 2 -1.41271 -0.940864 -2.42983 
714 2 -0.0754862 -0.33186 -2.18548 
433 2 0.896703 0.117503 -1.81041 
461 2 -1.03843 1.65437 -2.11752 
20 1 2.96209 -0.875734 -4.56752 
19 1 3.84371 -0.902992 -4.80357 
486 2 1.93794 -0.62699 -4.88215 
686 2 4.80805 0.31317 -5.09563 
688 2 2.53935 0.948601 -5.03778 
687 2 3.65038 0.559765 -4.90841 
21 1 2.28979 -1.43204 -4.15248 
26 1 3.46771 -1.69589 -4.09671 
658 2 5.19287 -0.602242 -4.29915 
487 2 2.46726 0.0982673 -4.22898 
661 2 3.19101 1.25607 -4.19404 
684 2 4.65654 1.31165 -4.77713 
22 1 1.9032 -1.21086 -3.34541 
532 2 4.94378 -1.16698 -3.27115 
27 1 3.7991 -0.848033 -3.62396 
28 1 3.29986 -0.132569 -3.13925 
659 2 4.47386 -0.025913 -3.69568 
718 2 2.07848 0.971031 -3.75651 
100 1 5.34653 1.775 -3.82114 
660 2 4.1795 1.20502 -3.58526 
23 1 2.88828 -1.2643 -3.02591 
651 2 4.08207 -0.900745 -2.4599 
493 2 1.9503 -0.0308615 -2.90899 
662 2 2.99096 1.02094 -3.13797 
29 1 3.93171 0.509113 -2.55268 
548 2 5.332 0.318549 -3.1904 
717 2 2.069 1.54839 -2.67623 
533 2 4.7463 -1.79487 -2.38529 
494 2 2.67701 0.0187239 -1.97292 
30 1 4.13794 0.0888592 -1.85075 
663 2 3.51871 1.50939 -2.29108 
184 1 4.68413 1.285 -2.58787 
266 1 2.50858 -1.74651 -1.81491 
550 2 5.35013 -0.946708 -1.88897 
642 2 -3.4323 2.35849 -4.80791 
97 1 -4.89228 3.75356 -5.36803 
95 1 -3.54748 4.12074 -4.70649 
99 1 -5.03664 2.49674 -4.21986 
98 1 -5.27556 3.26402 -4.73351 
641 2 -2.97908 2.64121 -3.82738 
743 2 -1.93679 3.05872 -4.08993 
96 1 -4.35926 3.79757 -4.46934 
756 2 -2.55976 5.14086 -3.83455 
182 1 -5.28666 2.68857 -3.21856 
741 2 -3.12098 3.99236 -3.36354 
639 2 -3.16443 1.96161 -3.00424 
35 1 -4.10529 2.43924 -2.49209 
638 2 -2.39724 2.72981 -2.69005 
742 2 -1.91262 3.81958 -3.1717 
693 2 -5.29452 3.94155 -3.09865 
740 2 -3.54429 4.9415 -2.98393 
755 2 -2.23548 4.84338 -2.73969 
368 1 -2.67304 1.97452 -1.84032 
201 1 -3.77417 3.48044 -2.29619 
739 2 -3.67736 4.62785 -1.89777 
643 2 -4.38773 1.80894 -5.35629 
650 2 -5.02133 5.10549 -5.31114 
225 1 -1.18555 2.25905 -4.87624 
226 1 -0.303574 2.5209 -4.85968 
625 2 -0.796375 3.495 -4.73646 
721 2 0.310363 3.39492 -5.08906 
720 2 0.688107 2.57306 -4.34041 
722 2 1.35967 3.32199 -4.77368 
726 2 0.28566 4.48769 -4.86848 
629 2 1.71215 4.54279 -4.80224 
285 1 -0.747978 5.21579 -4.77736 
284 1 -0.227741 4.9599 -3.95113 
626 2 -0.342312 3.06457 -3.57655 
723 2 1.56149 2.88241 -3.75114 
725 2 0.512033 3.5353 -4.0314 
283 1 0.452537 4.48614 -3.46781 
628 2 1.4747 4.0994 -3.77379 
752 2 -1.48625 5.35854 -3.59623 
744 2 -1.36848 2.21445 -3.44024 
724 2 0.556031 2.51482 -3.30953 
500 2 -0.551935 3.93017 -2.94401 
627 2 0.558038 3.57263 -2.92111 
282 1 0.615091 4.69935 -2.52096 
455 2 1.66811 4.47856 -2.53176 
634 2 -0.342779 4.94095 -2.84925 
498 2 0.110683 2.25763 -2.3288 
462 2 -0.750818 2.84812 -2.58668 
155 1 1.20984 2.66011 -2.42904 
463 2 -1.42789 3.73721 -2.26573 
499 2 -0.00137784 3.39309 -1.84019 
635 2 -0.620993 4.37404 -1.91392 
419 2 -0.240136 5.23842 -1.89849 
281 1 0.777722 4.13137 -1.83504 
727 2 -0.763759 4.33169 -5.41869 
346 1 3.79941 1.87869 -5.20456 
291 1 2.36853 3.44277 -5.28341 
344 1 3.48486 3.51035 -5.06175 
699 2 4.35095 3.58644 -4.32672 
564 2 3.64429 5.05928 -4.82114 
700 2 5.24367 4.32182 -4.30528 
631 2 2.46564 5.40412 -4.4544 
565 2 4.63926 5.22871 -4.32836 
689 2 2.17935 1.91049 -4.36649 
698 2 4.55025 2.35048 -4.43503 
697 2 3.36971 2.36634 -4.35248 
563 2 3.04976 4.14665 -4.0821 
690 2 2.67104 2.58392 -3.51422 
696 2 3.68547 2.1508 -3.12647 
181 1 4.77954 3.05461 -3.46193 
153 1 2.17483 3.65989 -3.21535 
691 2 3.52808 3.37505 -3.28399 
451 2 2.42403 4.87471 -3.24884 
562 2 3.59184 4.79572 -3.111 
692 2 4.45595 4.18724 -3.42227 
183 1 5.39712 1.88465 -2.49549 
695 2 4.48568 2.43572 -2.50218 
154 1 2.04732 2.85958 -2.72702 
152 1 2.89879 4.00751 -2.61045 
180 1 4.32816 3.46807 -2.53075 
178 1 2.88281 2.4348 -2.08119 
694 2 5.32333 3.10353 -2.32875 
179 1 3.56825 2.80918 -2.11402 
456 2 1.83174 3.54308 -1.90638 
151 1 3.63783 4.37958 -2.02729 
561 2 2.70869 4.95461 -2.2181 
345 1 4.23678 2.88538 -5.33907 
786 2 -3.00149 -5.34434 -1.22912 
535 2 -4.53819 -3.01985 -1.3442 
117 1 -3.17016 -3.15437 -1.15948 
710 2 -3.32189 -1.97784 -1.62974 
113 1 -4.42641 -5.26804 -1.08806 
105 1 -5.2271 -5.16765 -0.406822 
114 1 -3.95361 -4.3625 -0.896128 
783 2 -2.09807 -4.39082 -0.904364 
118 1 -2.738 -3.29845 -0.319287 
709 2 -3.91589 -2.45821 -0.73732 
762 2 -2.57516 -2.05454 -0.768035 
766 2 -4.39939 -4.64663 0.0739533 
767 2 -5.2402 -3.83532 0.0890508 
119 1 -1.89056 -3.58765 -0.0271025 
708 2 -4.64175 -2.59212 0.199011 
506 2 -1.96978 -2.50883 0.00953516 
763 2 -3.05745 -2.25392 0.245955 
104 1 -5.35735 -5.23795 0.536078 
784 2 -2.24062 -4.53533 0.278877 
765 2 -3.33737 -4.45393 0.482391 
764 2 -3.55661 -3.40974 0.24574 
103 1 -4.90872 -5.20008 1.36282 
706 2 -4.03765 -3.87281 1.37453 
707 2 -4.94697 -3.1983 1.12814 
505 2 -2.24254 -2.15451 1.03908 
782 2 -1.31375 -5.1662 -1.40785 
523 2 1.52135 -4.74462 -1.43409 
520 2 -0.668994 -4.33325 -1.37906 
416 2 0.265967 -3.71397 -1.45418 
509 2 -1.06849 -2.69351 -1.18551 
264 1 0.56135 -2.24942 -1.59996 
781 2 -0.349433 -5.1525 -0.792197 
120 1 -1.19955 -3.66343 -0.67482 
415 2 0.99162 -3.39482 -0.732692 
508 2 0.00158483 -2.77993 -0.691765 
776 2 1.0019 -4.78626 -0.510021 
519 2 -1.17715 -4.67489 -0.27052 
121 1 -0.207975 -3.7966 -0.37845 
507 2 -0.85316 -3.02115 0.0186162 
556 2 1.21113 -2.46966 0.305935 
510 2 -1.11981 -1.87801 -0.256585 
554 2 0.735028 -1.81714 -0.444424 
517 2 0.0308122 -4.62838 0.284991 
558 2 1.36906 -4.92346 0.599408 
518 2 -1.11868 -4.75695 0.739888 
122 1 0.137565 -3.48789 0.492492 
557 2 1.42883 -3.63381 0.628885 
511 2 -1.23259 -2.43405 0.845216 
502 2 -0.154695 -2.45856 0.697806 
516 2 0.492532 -4.9988 1.23928 
123 1 -0.149843 -4.15548 1.34385 
515 2 1.30793 -4.20079 1.68497 
512 2 -1.08102 -3.55139 1.33504 
131 1 0.674839 -2.74155 1.3931 
130 1 1.62737 -2.79949 1.39077 
503 2 -0.543928 -2.70579 1.69396 
525 2 3.34589 -5.18344 -1.4543 
582 2 4.41566 -5.39331 -1.20523 
524 2 2.56372 -4.30094 -1.74499 
571 2 3.22573 -3.38988 -1.76872 
528 2 4.55948 -3.64582 -1.51664 
409 2 5.25943 -2.8828 -1.0441 
255 1 2.50987 -2.73735 -1.33155 
572 2 3.95791 -2.47245 -1.43766 
584 2 3.12759 -4.99933 -0.385046 
583 2 3.85386 -4.34859 -1.10026 
579 2 2.90321 -3.91029 -0.742663 
410 2 4.38912 -3.21447 -0.414712 
254 1 3.18557 -2.97362 -0.538386 
555 2 1.81847 -2.17144 -0.6864 
268 1 3.84667 -2.01461 -0.478163 
775 2 2.09742 -5.17258 -0.0952377 
581 2 4.5907 -4.64941 -0.216875 
414 2 1.82909 -4.09395 -0.259143 
580 2 3.80229 -4.07154 0.0702231 
578 2 2.16639 -3.09755 -0.207156 
253 1 3.06868 -2.77241 0.412106 
577 2 2.77622 -1.95069 -0.0812459 
269 1 4.10635 -2.46042 0.333708 
413 2 2.75024 -4.35025 0.387317 
768 2 5.14627 -4.39512 1.05176 
252 1 2.41489 -3.35843 0.853164 
411 2 4.50162 -3.44527 0.66224 
275 1 2.16708 -5.15805 1.35576 
412 2 3.64031 -4.00172 1.15695 
270 1 4.0797 -2.57561 1.32855 
273 1 2.75848 -4.21895 1.75436 
251 1 3.09064 -3.1166 1.47853 
370 1 -2.73291 0.699534 -1.75779 
712 2 -1.82754 -0.414564 -1.04022 
371 1 -3.32757 1.09939 -1.20804 
33 1 -4.58245 1.13779 -1.48465 
197 1 -4.53591 -1.25135 -1.23086 
711 2 -2.90915 -0.935637 -1.14961 
196 1 -5.27434 -0.584487 -0.652357 
384 1 -2.62117 0.22524 -0.735862 
379 1 -4.45429 0.256347 -0.810838 
385 1 -1.82021 0.747844 -0.47812 
378 1 -4.24482 1.17437 -0.474752 
372 1 -3.02795 1.34996 -0.303094 
467 2 -1.89394 1.75477 -1.00477 
198 1 -4.55956 -1.53579 -0.276514 
195 1 -5.27442 -0.902056 0.216954 
450 2 -4.0163 -0.633133 0.0512966 
438 2 -2.99547 -0.797505 0.0424585 
437 2 -1.85939 -1.11337 -0.156986 
380 1 -4.66665 0.269012 0.159227 
382 1 -3.58705 0.397196 -0.0180108 
383 1 -3.39453 -0.0601631 -0.787904 
439 2 -2.56676 0.173248 0.389951 
375 1 -4.81266 1.75974 0.272454 
373 1 -3.54235 1.77491 0.359961 
194 1 -5.40329 -1.59453 0.783501 
199 1 -4.00564 -1.70025 0.521634 
449 2 -4.33874 -0.666331 1.13745 
393 1 -1.81952 -0.570837 0.718868 
446 2 -3.2902 -0.32714 1.0622 
381 1 -3.96518 0.761998 0.75528 
445 2 -2.89216 0.987921 0.956614 
440 2 -1.83744 0.994739 0.636997 
193 1 -5.21802 -1.39086 1.63469 
448 2 -3.90491 0.2222 1.77035 
395 1 -2.33592 0.318959 1.59113 
441 2 -2.07561 1.37365 1.64894 
200 1 -3.89204 -1.80806 1.46953 
750 2 -1.68621 -1.62279 -1.42951 
553 2 1.13982 -1.06943 -1.18945 
713 2 -0.894306 -0.909078 -1.52414 
800 2 -0.526946 0.408665 -1.55155 
495 2 1.80066 -0.0230414 -1.22707 
468 2 -1.58443 0.828262 -1.5498 
496 2 1.73638 1.02183 -1.65416 
497 2 0.820279 1.57426 -1.73906 
436 2 -0.873418 -0.625129 -0.366028 
435 2 0.0033226 -1.03396 -1.05717 
614 2 -0.081757 0.162099 -0.1205 
434 2 0.798688 -0.194268 -0.57591 
432 2 0.829739 0.847063 -0.889781 
386 1 -1.26722 1.50635 -0.0904936 
431 2 -0.182228 1.21259 -0.342594 
501 2 -0.175916 -1.45355 0.0201657 
613 2 0.621614 -0.744392 0.302673 
327 1 1.65327 -0.479112 -0.0247989 
322 1 1.12848 0.363692 0.5787 
612 2 0.814432 -1.64408 0.889102 
615 2 -0.831304 0.598023 0.459867 
388 1 -0.189494 1.51535 0.668774 
320 1 1.01261 1.41231 1.03448 
321 1 1.34471 1.06463 0.251133 
605 2 -0.968371 -1.36713 0.962346 
392 1 -1.7169 -0.69769 1.67093 
604 2 -0.0401511 -0.712964 1.16103 
326 1 1.52169 -0.529929 1.03635 
394 1 -1.45824 0.0786124 1.06216 
323 1 0.966116 0.337207 1.50119 
389 1 0.0151282 0.872748 1.49655 
616 2 -1.03972 0.998284 1.48332 
601 2 0.116584 -1.74167 1.74729 
390 1 -0.543984 0.0460677 1.71852 
177 1 2.70317 1.62857 -1.46291 
267 1 3.18967 -1.71929 -1.0575 
573 2 4.27402 -1.32373 -1.52639 
408 2 5.24328 -1.68632 -1.10146 
31 1 4.94729 0.0366183 -1.59762 
32 1 5.41964 0.604988 -0.872308 
176 1 2.99519 0.763809 -1.10804 
185 1 4.22967 1.10032 -1.55959 
353 1 5.24333 1.53054 -1.5534 
401 2 2.35748 -1.00717 -0.718111 
574 2 3.40819 -0.509114 -1.18182 
173 1 3.07411 0.033916 -0.284683 
187 1 4.38853 -0.622249 -0.649138 
172 1 2.15597 0.437788 -0.317869 
186 1 4.25336 0.303621 -0.807065 
171 1 2.42906 1.35871 -0.314998 
175 1 3.58026 1.20271 -0.60827 
407 2 4.71098 -1.46368 -0.0231347 
575 2 3.32071 -0.961679 0.0140323 
174 1 3.67609 0.731961 0.157408 
188 1 4.82845 0.134519 -0.0317353 
376 1 5.24556 1.48232 -0.101149 
402 2 1.85842 -1.55088 0.222379 
576 2 3.41401 -1.77851 0.820444 
189 1 4.98806 -0.346592 0.958717 
328 1 2.4891 -0.385298 0.616916 
190 1 4.11029 -0.453043 0.721129 
170 1 2.91517 1.77565 0.312452 
59 1 5.35338 1.18906 0.97467 
403 2 1.95634 -1.63197 1.34229 
406 2 4.39984 -1.58995 1.0805 
325 1 2.21507 -0.610866 1.67923 
191 1 4.11456 -0.425907 1.73811 
329 1 2.07497 0.341158 1.13279 
330 1 3.07223 0.616046 1.48168 
58 1 4.96627 1.29422 1.78643 
169 1 2.85766 1.73356 1.12505 
34 1 -4.39972 2.14603 -1.62577 
367 1 -2.63576 2.92529 -1.65433 
754 2 -2.20984 4.9689 -1.7356 
365 1 -3.45445 2.30247 -1.19043 
355 1 -4.89372 3.11709 -1.38232 
202 1 -3.74758 3.65426 -1.2771 
358 1 -5.39481 4.51865 -1.39845 
377 1 -4.95037 1.90397 -0.720408 
364 1 -3.93811 2.42058 -0.426817 
366 1 -2.85959 2.70929 -0.743011 
203 1 -3.59179 3.4926 -0.394814 
464 2 -1.90327 3.82287 -1.1306 
359 1 -4.58778 4.14708 -0.937613 
738 2 -3.00417 4.35682 -0.80655 
112 1 -3.91697 5.26689 -0.371316 
422 2 -1.91489 5.27812 -0.704023 
466 2 -1.89462 2.75561 -0.289505 
363 1 -4.7285 3.14814 -0.307275 
737 2 -2.1675 3.83501 -0.151768 
107 1 -5.3579 4.26262 0.073495 
360 1 -4.27435 4.30658 -0.0698478 
111 1 -4.07345 5.15007 0.629416 
785 2 -2.91429 5.38899 -0.0694828 
374 1 -4.27134 2.17446 0.909289 
444 2 -2.3373 1.99356 0.782515 
60 1 -5.33082 2.14557 1.10127 
362 1 -5.03137 3.12598 0.63474 
204 1 -3.15386 3.08418 0.327002 
361 1 -4.23183 3.6483 0.58949 
736 2 -2.17145 3.36261 0.881837 
108 1 -5.28989 4.47829 0.95266 
735 2 -2.82987 4.33335 0.451759 
423 2 -1.85657 5.16182 0.502229 
206 1 -3.45709 1.82713 1.60362 
205 1 -3.22125 2.63436 1.17178 
443 2 -2.38764 2.72572 1.74252 
734 2 -2.96994 3.95649 1.59615 
109 1 -4.50166 4.59846 1.45081 
110 1 -3.59054 4.78486 1.26414 
637 2 -1.61682 2.51753 -1.78088 
156 1 0.925624 2.84112 -1.65754 
636 2 -0.895086 3.29738 -1.40745 
280 1 1.36985 4.28239 -1.08453 
522 2 0.830525 5.26915 -1.46349 
459 2 0.713311 2.07587 -0.636258 
460 2 -0.322565 1.99948 -1.32416 
458 2 1.75988 2.50423 -0.326576 
157 1 1.08585 3.17673 -0.873692 
421 2 -1.10496 4.50819 -0.78924 
420 2 -0.0287487 4.73787 -0.924202 
430 2 -0.575075 2.32652 -0.292879 
428 2 0.388162 2.98577 -0.0618666 
465 2 -1.19635 3.66067 -0.0955465 
427 2 1.28445 3.71498 0.21264 
426 2 0.35001 4.17068 0.135207 
780 2 -0.860361 5.16038 0.103113 
777 2 0.420152 5.14701 0.0974101 
559 2 1.35207 5.04767 -0.349638 
387 1 -1.02326 1.9391 0.833026 
594 2 0.703826 2.46276 0.857012 
429 2 -0.631455 2.95451 0.640915 
425 2 -0.48481 4.32286 0.877432 
774 2 1.69999 4.91696 0.676192 
595 2 -0.22829 2.4209 1.52608 
593 2 0.963822 3.63861 1.24156 
424 2 -1.56525 4.35781 1.20414 
778 2 0.520691 4.66852 1.11947 
779 2 -0.483939 5.32206 1.2015 
319 1 1.0973 2.01772 1.79579 
773 2 1.30556 5.208 1.68966 
457 2 1.96528 2.49184 -1.44848 
664 2 3.76531 2.0483 -1.33233 
354 1 5.18535 2.44718 -1.41489 
163 1 3.39151 3.51619 -1.39069 
357 1 4.74849 4.04602 -1.48806 
159 1 2.48394 4.12174 -1.2891 
560 2 2.03507 5.22508 -1.42012 
165 1 2.99592 2.86209 -0.421226 
164 1 3.83319 2.93026 -0.836287 
158 1 2.01751 3.37487 -0.882918 
162 1 3.27355 3.82555 -0.527658 
356 1 5.14759 3.42572 -0.934736 
279 1 2.16745 4.32296 -0.26319 
161 1 3.96425 4.44421 -0.864857 
160 1 3.04848 4.85068 -0.835658 
665 2 3.82681 2.23672 -0.0396506 
166 1 2.33287 3.41555 0.143315 
63 1 4.86303 2.62092 -0.167491 
64 1 4.3043 3.51267 -0.109646 
585 2 3.60245 5.09121 0.254385 
106 1 5.00664 4.90734 -0.432322 
61 1 4.57437 1.93172 0.768798 
168 1 1.96924 2.25052 1.09338 
167 1 1.91287 3.16943 0.922699 
666 2 3.30306 3.23734 0.607986 
62 1 4.53487 2.88418 0.712813 
278 1 2.80504 4.37725 0.356208 
65 1 4.53711 3.97704 0.631312 
586 2 4.52827 5.31436 0.989433 
668 2 3.619 2.53273 1.45054 
667 2 2.73002 3.231 1.61212 
66 1 4.0571 3.57335 1.47442 
277 1 2.64566 4.4128 1.30022 
276 1 2.89479 5.29566 1.10089 
705 2 -3.50794 -4.63019 2.02922 
102 1 -4.93686 -4.53235 2.01358 
101 1 -4.62868 -4.22826 2.82013 
704 2 -3.38192 -4.23201 3.05321 
607 2 -2.25802 -2.11614 2.69918 
248 1 -3.4709 -3.05763 3.69508 
249 1 -3.65855 -2.09802 3.71326 
250 1 -4.47693 -1.87964 3.32002 
703 2 -3.86454 -4.6798 4.00727 
303 1 -2.19726 -4.79883 4.10185 
302 1 -2.39435 -3.9828 4.14587 
247 1 -2.48544 -2.70261 3.93305 
702 2 -3.51707 -3.85 4.86607 
301 1 -2.29962 -4.00363 5.00043 
793 2 -3.22928 -2.10733 5.20055 
286 1 -0.271109 -5.28115 5.34809 
476 2 -1.17885 -3.41264 5.32691 
475 2 -0.11622 -3.44381 5.35183 
124 1 0.0138961 -4.62624 2.13138 
125 1 0.724736 -5.11638 2.46989 
513 2 -0.416756 -3.50189 2.44296 
514 2 0.597134 -3.55714 2.19033 
504 2 -1.76621 -2.9709 1.8807 
132 1 0.965851 -2.50698 2.30406 
606 2 -1.43014 -1.94292 1.82887 
126 1 1.58715 -5.22691 3.01881 
133 1 0.247134 -2.61376 2.72265 
602 2 -0.670342 -2.10079 2.54687 
310 1 -0.0747791 -4.85203 3.40102 
309 1 -0.995482 -4.34568 3.53707 
127 1 1.37952 -4.46813 3.23601 
135 1 0.278812 -3.42335 4.01356 
246 1 -1.60846 -2.37176 3.70895 
134 1 -0.383124 -2.80161 3.59024 
137 1 1.04516 -2.64443 3.55709 
311 1 0.370673 -5.35789 4.00448 
307 1 -0.0318435 -4.33285 4.55616 
308 1 -0.816046 -3.64835 4.1455 
136 1 0.515355 -2.51733 4.29413 
245 1 -1.07933 -2.24239 4.51586 
306 1 -1.00827 -4.72974 4.46033 
305 1 -1.32249 -5.02261 5.29143 
287 1 0.580331 -4.99608 5.20566 
244 1 -0.385804 -2.20531 5.14238 
770 2 3.64687 -5.17314 1.85715 
769 2 4.84223 -4.87508 2.01978 
274 1 2.23924 -4.76228 2.31177 
272 1 3.76494 -3.91764 2.23679 
129 1 2.05153 -2.95617 2.35544 
271 1 4.14013 -2.94454 2.2598 
404 2 2.84157 -2.07751 1.96277 
771 2 3.58247 -5.06974 2.88717 
128 1 1.96614 -3.81481 2.62651 
138 1 2.00758 -2.44473 3.37563 
139 1 2.76827 -3.03657 3.38122 
140 1 3.19493 -3.19535 4.30813 
12 1 2.04677 -2.09912 4.68268 
13 1 2.88759 -2.1244 4.1753 
14 1 3.94973 -2.06884 4.1303 
143 1 2.93685 -4.3613 4.92615 
49 1 4.35816 -2.94789 4.90843 
50 1 5.40991 -2.95178 4.87473 
141 1 3.01804 -2.75235 5.11933 
89 1 -2.6373 0.996465 5.40459 
447 2 -3.40161 -0.793144 2.05371 
396 1 -2.9075 0.0875686 2.36265 
208 1 -4.44093 1.38047 2.00124 
207 1 -3.61741 1.29215 2.45059 
599 2 -2.64728 -0.685337 3.58328 
598 2 -2.04013 0.104859 2.9681 
52 1 -5.24156 0.937388 2.61582 
397 1 -2.84959 0.789148 3.1785 
53 1 -4.75158 1.49244 3.26567 
673 2 -4.59501 -0.575134 3.61147 
399 1 -2.72985 0.657156 4.18976 
672 2 -4.89655 0.532687 4.04801 
398 1 -2.41305 1.29916 3.56589 
674 2 -4.21256 -0.174748 4.6148 
400 1 -3.64033 0.761644 3.92812 
45 1 -5.12937 -1.20346 5.1546 
675 2 -5.0393 0.0137838 5.19446 
88 1 -2.67617 0.157748 5.21848 
92 1 -3.44947 1.78902 4.89605 
478 2 -1.62222 -1.42648 5.20523 
232 1 1.06653 1.66492 5.28289 
603 2 -0.761889 -1.03701 2.04625 
611 2 1.166 -1.20846 1.86288 
610 2 0.247746 -0.896843 2.50943 
391 1 -1.39106 0.0324803 2.11328 
324 1 1.59042 -0.0521736 2.27537 
617 2 -0.426299 0.9706 2.48565 
608 2 -1.73855 -1.08872 2.77766 
609 2 -0.813968 -1.27552 3.30096 
8 1 1.25586 -1.18471 2.93342 
619 2 -0.502607 -0.259998 2.87637 
618 2 0.584467 0.223797 2.63351 
597 2 -1.4828 1.09798 2.46217 
335 1 0.554787 1.41995 3.169 
336 1 1.19626 1.05854 2.72391 
7 1 0.639044 -1.49797 3.46011 
600 2 -1.69668 -1.11237 4.10141 
620 2 0.14321 -0.580195 3.68603 
4 1 -0.999175 -0.16339 3.92941 
79 1 1.50802 -0.380649 3.97676 
3 1 -1.10781 0.66271 3.34871 
80 1 0.897791 0.257346 3.67932 
2 1 -0.894546 1.63787 3.50901 
338 1 1.73592 1.47248 3.82582 
6 1 -0.139147 -1.64982 4.00931 
11 1 1.3875 -1.56722 4.30578 
5 1 -0.633066 -0.857215 4.49649 
621 2 0.671325 -0.242664 4.68075 
83 1 -1.78244 0.772853 4.60811 
82 1 -0.793334 0.94805 4.47153 
81 1 -0.0917348 0.634894 3.73887 
339 1 1.36485 0.937366 4.37789 
483 2 1.11549 -1.19955 5.24472 
84 1 -1.51481 -0.160892 4.99284 
236 1 -0.504537 0.0841082 5.09611 
622 2 0.142929 0.848223 4.81231 
405 2 3.83872 -1.75105 2.08006 
192 1 4.94719 -0.802708 1.97371 
331 1 2.75961 0.584056 2.41084 
332 1 2.16136 1.3734 2.24572 
669 2 3.87208 1.51596 2.03421 
9 1 2.15678 -1.09933 2.96521 
51 1 5.28966 0.0427192 2.7673 
670 2 4.4525 0.685496 2.63231 
75 1 3.03427 1.51212 2.99154 
10 1 2.18977 -1.16653 3.81462 
15 1 4.10341 -1.25887 3.61594 
16 1 3.23762 -0.883601 3.70797 
78 1 2.34156 -0.129021 3.6569 
337 1 1.85638 0.742996 3.40332 
76 1 2.95737 0.710001 3.53697 
671 2 4.92893 0.87573 3.67389 
681 2 3.96246 1.45153 3.71644 
17 1 2.99615 -1.21167 4.58525 
77 1 2.79766 0.271471 4.34673 
678 2 4.06489 0.279902 4.18773 
677 2 5.11118 -0.360908 4.27312 
341 1 2.28325 1.23285 4.84912 
18 1 3.83639 -1.05615 5.00704 
676 2 4.7604 -0.742265 5.37062 
679 2 3.85848 0.0247148 5.14277 
340 1 1.94177 0.41786 4.86545 
680 2 3.43808 1.0528 4.58594 
347 1 4.39564 1.5704 4.91012 
342 1 2.74191 1.80533 5.26994 
71 1 -5.08241 2.62666 1.96631 
210 1 -3.82209 3.04684 2.09252 
70 1 -5.34585 3.61492 1.92286 
733 2 -3.48139 4.19338 2.57646 
209 1 -4.11841 2.252 2.34847 
442 2 -2.58544 1.91672 2.5382 
213 1 -2.79622 3.10498 2.80774 
211 1 -3.83446 3.21917 3.13167 
214 1 -2.42125 4.08803 2.80918 
731 2 -2.37454 5.29653 3.16722 
54 1 -4.75464 2.47007 3.29655 
212 1 -3.02087 3.05248 3.69125 
647 2 -4.63191 4.33948 3.75833 
732 2 -3.18497 4.60612 3.59396 
644 2 -4.50376 2.21868 4.35703 
223 1 -1.82692 1.92931 4.228 
645 2 -4.42058 3.36266 4.14661 
646 2 -3.64069 4.16239 4.41546 
649 2 -5.28029 4.46352 4.64104 
304 1 -2.17522 5.42498 4.8676 
91 1 -2.69516 2.30993 5.23161 
93 1 -3.58545 2.81365 4.71582 
94 1 -3.75548 3.56891 5.33103 
227 1 0.462453 2.51248 5.30682 
596 2 -1.18517 2.08561 1.94741 
318 1 1.03532 2.88499 2.12814 
315 1 -0.0602335 3.35303 2.4224 
216 1 -0.752214 4.44729 2.81758 
316 1 0.801778 3.92996 2.28392 
221 1 -0.997115 2.59504 3.04686 
220 1 -0.0682263 2.40238 2.98538 
334 1 1.03531 2.17831 3.25381 
314 1 -0.501004 3.47987 3.40514 
317 1 1.38687 3.3529 2.86431 
215 1 -1.57309 4.26782 2.6963 
217 1 0.197827 4.73178 3.0473 
222 1 -1.79942 2.45072 3.37763 
1 1 -0.973326 2.57942 4.07689 
219 1 0.442965 2.97056 3.50213 
230 1 1.41733 3.12691 3.97393 
218 1 0.544419 4.00042 3.4226 
730 2 -1.52884 5.1442 4.08973 
231 1 1.07364 2.32342 4.49502 
229 1 1.33971 4.01701 4.18618 
729 2 -1.39108 3.88957 4.05875 
313 1 -0.308948 3.97902 4.20486 
312 1 0.344601 4.66559 4.55317 
224 1 -1.40896 2.04897 5.03434 
623 2 -0.35685 1.95255 4.72893 
624 2 -0.558222 3.06729 4.98861 
228 1 0.902304 3.36292 4.8498 
728 2 -1.5057 3.63909 5.15201 
288 1 1.03574 5.11911 5.31234 
343 1 3.13863 2.71661 5.40166 
57 1 4.70451 2.39585 1.82702 
592 2 1.89179 3.83938 2.00232 
333 1 1.92832 2.08182 2.86367 
56 1 4.65352 3.06603 2.38876 
67 1 3.54999 3.57759 2.22232 
69 1 5.05365 4.01205 2.6437 
589 2 4.19216 4.65331 1.98458 
772 2 2.57572 5.17485 2.252 
587 2 5.25555 5.004 1.85027 
74 1 3.39338 2.48617 2.61448 
73 1 4.2128 2.02488 2.94346 
72 1 5.25465 2.05315 2.61173 
55 1 5.33364 2.94929 3.10984 
68 1 4.13339 3.94619 2.99747 
591 2 2.09638 4.2926 3.04985 
590 2 3.17802 4.464 2.76062 
588 2 4.72537 5.21881 2.85857 
294 1 2.73732 2.70426 3.50706 
295 1 2.86601 3.71456 3.53475 
296 1 3.55567 4.38126 3.93803 
648 2 5.1256 4.71878 3.70439 
682 2 5.02737 1.96332 4.10929 
293 1 2.65829 2.72415 4.38364 
349 1 3.7476 3.15368 4.41752 
298 1 4.48282 3.94976 4.64266 
299 1 5.03921 3.25159 4.2506 
297 1 4.19011 4.67539 4.57468 
348 1 4.02555 2.27343 4.46815 
683 2 5.25227 1.93481 5.39976 
292 1 1.85116 2.95074 4.89396 
300 1 5.29745 2.98874 5.00844 
290 1 1.89612 4.09222 5.03455 
350 1 3.34013 3.89807 4.89572 
289 1 1.98438 5.10282 5.11359 
ITEM: TIMESTEP
200
ITEM: NUMBER OF ATOMS
800
ITEM: BOX BOUNDS pp pp pp
-5.4256120000000001e+00 5.4256120000000001e+00
-5.4256120000000001e+00 5.4256120000000001e+00
-5.4256120000000001e+00 5.4256120000000001e+00
ITEM: ATOMS id type x y z 
701 2 -4.21467 -4.24652 5.4062 
792 2 -3.12385 -3.57826 -5.19446 
794 2 -2.37406 -2.51498 4.80765 
542 2 -4.01282 -2.31452 -5.25227 
757 2 -2.57275 -4.67252 -4.87346 
539 2 -5.33497 -4.24849 -4.28102 
655 2 -4.81174 -3.11884 -4.93868 
791 2 -3.44522 -2.98268 -4.5432 
541 2 -5.33518 -2.2111 -4.54858 
538 2 -4.145 -4.65335 -4.42071 
790 2 -3.26743 -3.79691 -3.82493 
540 2 -4.682 -3.2164 -3.76601 
656 2 -4.22373 -2.20125 -3.73298 
796 2 -3.25979 -1.69945 -4.15318 
567 2 -5.04226 5.35687 -3.03279 
537 2 -4.40203 -4.46854 -3.48108 
788 2 -2.58166 -4.00688 -2.58302 
789 2 -3.5821 -3.30353 -3.08635 
531 2 5.06729 -2.35812 -3.503 
472 2 -2.43085 -2.86639 -3.52325 
787 2 -3.23462 -5.07169 -2.1408 
115 1 -4.34311 -4.87254 -1.80698 
116 1 -3.8171 -4.08599 -1.65497 
534 2 -4.31649 -1.52342 -2.7324 
536 2 -4.70538 -3.94709 -2.70569 
761 2 -2.78027 -3.08692 -1.98736 
477 2 -0.942755 -2.68388 5.19656 
243 1 0.306833 -2.80641 -5.18033 
482 2 1.5736 -2.00878 -5.28509 
630 2 0.571844 5.19884 -4.91526 
145 1 0.941778 -3.68172 -5.08732 
474 2 -1.10956 -3.33312 -4.58622 
146 1 0.186687 -3.71551 -4.38804 
473 2 -2.09528 -2.77053 -4.50316 
242 1 0.338935 -2.10975 -4.12833 
633 2 -0.0114447 -5.1848 -3.33176 
751 2 -0.829838 -4.62858 -4.05544 
758 2 -2.03812 -4.06154 -4.02711 
260 1 0.10248 -3.1782 -3.35253 
259 1 0.934393 -3.06266 -4.07934 
258 1 1.48729 -2.62589 -4.08456 
632 2 0.7303 5.2496 -3.62934 
418 2 -0.398812 -5.01309 -1.65639 
147 1 0.883897 -3.91602 -3.58679 
261 1 -0.0861671 -2.32383 -2.9188 
551 2 1.04215 -1.94374 -3.13025 
257 1 2.40889 -2.71036 -3.42638 
753 2 -1.85808 -4.88918 -3.0602 
521 2 0.800174 -4.91371 -1.15657 
759 2 -1.37347 -3.43549 -3.15579 
417 2 0.15811 -4.22607 -2.11777 
148 1 1.86603 -3.70362 -3.47261 
262 1 0.106751 -1.76798 -2.08985 
760 2 -1.44639 -3.16218 -1.99022 
265 1 1.87037 -2.94216 -1.20933 
454 2 0.989449 -5.0604 -2.62485 
263 1 0.530051 -1.7371 -1.22804 
144 1 1.66845 -4.33116 -5.31761 
142 1 2.69538 -4.4439 4.8944 
48 1 4.43542 -2.70469 5.03926 
47 1 5.10929 -2.38461 5.23354 
46 1 4.80078 -2.13812 4.35855 
25 1 3.37075 -2.55957 -4.94566 
654 2 4.79394 -3.37324 -4.94793 
150 1 1.58878 -4.48441 -4.05409 
24 1 2.49021 -2.40144 -4.61403 
653 2 4.37906 -2.29208 -4.59852 
566 2 -4.97455 5.36911 -4.27018 
452 2 2.80017 -4.41758 -3.96256 
569 2 4.33474 -4.32926 -3.62449 
453 2 2.12612 -4.80139 -2.9214 
570 2 3.3858 -3.88152 -2.96867 
149 1 1.71865 -3.63673 -4.44389 
527 2 4.82622 -4.06849 -2.28421 
530 2 4.31871 -3.01827 -3.48495 
652 2 3.75203 -1.98834 -3.45731 
568 2 4.80199 -5.31266 -3.46551 
526 2 3.82426 -4.71763 -2.09692 
256 1 2.26735 -2.3596 -2.37161 
529 2 3.76563 -2.80205 -2.63276 
44 1 -4.91421 -1.26399 -5.48393 
544 2 -3.88579 -0.570453 -5.37544 
87 1 -2.4637 0.288403 -4.80021 
85 1 -2.11109 -0.379703 5.31126 
90 1 -3.04072 1.1241 -4.93447 
795 2 -2.71011 -1.92739 -5.06511 
43 1 -4.61426 -1.29092 -4.64138 
797 2 -2.36546 -1.11948 -4.02513 
685 2 5.31187 0.312021 -5.18308 
545 2 -4.26612 0.334013 5.37476 
86 1 -1.69568 0.188561 -4.81175 
471 2 -1.45935 -1.81701 -3.14257 
657 2 -5.02422 -1.35287 -3.72193 
42 1 -4.0109 -0.729992 -4.13509 
40 1 -4.46707 0.22447 -3.87758 
39 1 -3.36169 0.684932 -3.97069 
38 1 -3.07727 0.968876 -3.08097 
747 2 -2.48784 -0.00951561 -3.40169 
546 2 -4.232 1.0463 -4.50987 
640 2 -2.90127 1.99651 -4.05572 